
variables = "r", "UB(r)", "Uncertainty"
zone T = "State 1 UB(r)  5412rref2_74RRRfulls"

    0.600000    8.7225040980079D+04  1.078D+04
    0.650000    7.4723515052532D+04  9.312D+03
    0.700000    6.1427162115216D+04  7.734D+03
    0.750000    4.8101620788854D+04  6.135D+03
    0.800000    3.5580360366984D+04  4.614D+03
    0.850000    2.4618493705074D+04  3.260D+03
    0.900000    1.5746410587445D+04  2.143D+03
    0.950000    9.1709957069891D+03  1.294D+03
    1.000000    4.7617978279181D+03  7.066D+02
    1.050000    2.1286376748225D+03  3.419D+02
    1.100000    7.5916062908174D+02  1.423D+02
    1.150000    1.6087338159860D+02  4.839D+01
    1.200000   -4.3067618183693D+01  1.214D+01
    1.250000   -8.5301008586789D+01  1.671D+00
    1.300000   -7.9330918262192D+01  4.727D-01
    1.350000   -6.6231664357201D+01  2.842D-01
    1.400000   -5.5125321474085D+01  1.700D-01
    1.450000   -4.6097228124814D+01  1.509D-01
    1.500000   -3.8438042694452D+01  1.394D-01
    1.550000   -3.1886566921770D+01  1.238D-01
    1.600000   -2.6291271459126D+01  1.106D-01
    1.650000   -2.1487496129706D+01  1.007D-01
    1.700000   -1.7353033933881D+01  9.041D-02
    1.750000   -1.3811913159560D+01  7.890D-02
    1.800000   -1.0795565431458D+01  6.799D-02
    1.850000   -8.2311648116594D+00  5.919D-02
    1.900000   -6.0574255230121D+00  5.245D-02
    1.950000   -4.2337841653153D+00  4.698D-02
    2.000000   -2.7318229644727D+00  4.244D-02
    2.050000   -1.5229167292028D+00  3.933D-02
    2.100000   -5.7542723755653D-01  3.869D-02
    2.150000    1.3917355687728D-01  4.189D-02
    2.200000    6.4011506337937D-01  5.054D-02
    2.250000    9.3766410373896D-01  6.592D-02
    2.300000    1.0398743042066D+00  8.868D-02
    2.350000    9.6115367250130D-01  1.192D-01
    2.400000    7.2787328398856D-01  1.578D-01
    2.450000    3.7877918206699D-01  2.048D-01
    2.500000   -3.9204813927191D-02  2.598D-01
    2.550000   -4.7756359491595D-01  3.223D-01
    2.600000   -8.9274002743997D-01  3.908D-01
    2.650000   -1.2509388089293D+00  4.638D-01
    2.700000   -1.5304780928430D+00  5.391D-01
    2.750000   -1.7218174470626D+00  6.149D-01
    2.800000   -1.8258770662680D+00  6.891D-01
    2.850000   -1.8514134531872D+00  7.600D-01
    2.900000   -1.8121365394311D+00  8.263D-01
    2.950000   -1.7240613527196D+00  8.868D-01
    3.000000   -1.6033752970788D+00  9.408D-01
    3.050000   -1.4649231349586D+00  9.876D-01
    3.100000   -1.3212866493524D+00  1.027D+00
    3.150000   -1.1823644063036D+00  1.059D+00
    3.200000   -1.0553282230175D+00  1.084D+00
    3.250000   -9.4483308081136D-01  1.102D+00
    3.300000   -8.5337377526716D-01  1.113D+00
    3.350000   -7.8170506520712D-01  1.118D+00
    3.400000   -7.2926622823244D-01  1.118D+00
    3.450000   -6.9457226338319D-01  1.112D+00
    3.500000   -6.7555100305968D-01  1.102D+00
    3.550000   -6.6981787888574D-01  1.088D+00
    3.600000   -6.7488850086859D-01  1.071D+00
    3.650000   -6.8833432858458D-01  1.050D+00
    3.700000   -7.0788936448388D-01  1.027D+00
    3.750000   -7.3151673134501D-01  1.002D+00
    3.800000   -7.5744382099796D-01  9.754D-01
    3.850000   -7.8417388503944D-01  9.474D-01
    3.900000   -8.1048081167822D-01  9.184D-01
    3.950000   -8.3539261703479D-01  8.888D-01
    4.000000   -8.5816801041180D-01  8.587D-01
    4.050000   -8.7826934633656D-01  8.286D-01
    4.100000   -8.9533438484484D-01  7.984D-01
    4.150000   -9.0914855202085D-01  7.684D-01
    4.200000   -9.1961881588538D-01  7.388D-01
    4.250000   -9.2674985073905D-01  7.097D-01
    4.300000   -9.3062283515854D-01  6.811D-01
    4.350000   -9.3137699401764D-01  6.532D-01
    4.400000   -9.2919383374480D-01  6.260D-01
    4.450000   -9.2428391557886D-01  5.995D-01
    4.500000   -9.1687594961055D-01  5.739D-01
    4.550000   -9.0720796133646D-01  5.491D-01
    4.600000   -8.9552027314758D-01  5.252D-01
    4.650000   -8.8205004857572D-01  5.021D-01
    4.700000   -8.6702716189624D-01  4.799D-01
    4.750000   -8.5067117592240D-01  4.585D-01
    4.800000   -8.3318923372255D-01  4.380D-01
    4.850000   -8.1477469359830D-01  4.183D-01
    4.900000   -7.9560635968625D-01  3.995D-01
    4.950000   -7.7584818217272D-01  3.814D-01
    5.000000   -7.5564932087673D-01  3.642D-01
    5.050000   -7.3514448364727D-01  3.476D-01
    5.100000   -7.1445446657951D-01  3.319D-01
    5.150000   -6.9368683655398D-01  3.168D-01
    5.200000   -6.7293670816703D-01  3.024D-01
    5.250000   -6.5228757692122D-01  2.887D-01
    5.300000   -6.3181217876835D-01  2.756D-01
    5.350000   -6.1157335293293D-01  2.632D-01
    5.400000   -5.9162489057490D-01  2.513D-01
    5.450000   -5.7201235644320D-01  2.399D-01
    5.500000   -5.5277387438804D-01  2.291D-01
    5.550000   -5.3394087057213D-01  2.188D-01
    5.600000   -5.1553877057247D-01  2.090D-01
    5.650000   -4.9758764840551D-01  1.997D-01
    5.700000   -4.8010282692192D-01  1.908D-01
    5.750000   -4.6309543008924D-01  1.824D-01
    5.800000   -4.4657288847040D-01  1.743D-01
    5.850000   -4.3053939977024D-01  1.666D-01
    5.900000   -4.1499634671045D-01  1.593D-01
    5.950000   -3.9994267473599D-01  1.523D-01
    6.000000   -3.8537523219155D-01  1.457D-01
    6.050000   -3.7128907565638D-01  1.394D-01
    6.100000   -3.5767774311083D-01  1.334D-01
    6.150000   -3.4453349754702D-01  1.276D-01
    6.200000   -3.3184754353964D-01  1.222D-01
    6.250000   -3.1961021917365D-01  1.170D-01
    6.300000   -3.0781116559164D-01  1.120D-01
    6.350000   -2.9643947627977D-01  1.073D-01
    6.400000   -2.8548382806461D-01  1.028D-01
    6.450000   -2.7493259564641D-01  9.846D-02
    6.500000   -2.6477395135059D-01  9.436D-02
    6.550000   -2.5499595163905D-01  9.045D-02
    6.600000   -2.4558661179173D-01  8.673D-02
    6.650000   -2.3653397004134D-01  8.317D-02
    6.700000   -2.2782614232772D-01  7.977D-02
    6.750000   -2.1945136872736D-01  7.654D-02
    6.800000   -2.1139805251198D-01  7.344D-02
    6.850000   -2.0365479269590D-01  7.049D-02
    6.900000   -1.9621041084523D-01  6.767D-02
    6.950000   -1.8905397284350D-01  6.498D-02
    7.000000   -1.8217480623486D-01  6.241D-02
    7.050000   -1.7556251370146D-01  5.996D-02
    7.100000   -1.6920698317096D-01  5.761D-02
    7.150000   -1.6309839499669D-01  5.536D-02
    7.200000   -1.5722722660506D-01  5.322D-02
    7.250000   -1.5158425495724D-01  5.117D-02
    7.300000   -1.4616055713789D-01  4.921D-02
    7.350000   -1.4094750934387D-01  4.733D-02
    7.400000   -1.3593678451518D-01  4.553D-02
    7.450000   -1.3112034882262D-01  4.381D-02
    7.500000   -1.2649045720005D-01  4.217D-02
    7.550000   -1.2203964808670D-01  4.059D-02
    7.600000   -1.1776073752466D-01  3.909D-02
    7.650000   -1.1364681273786D-01  3.764D-02
    7.700000   -1.0969122530412D-01  3.626D-02
    7.750000   -1.0588758401550D-01  3.493D-02
    7.800000   -1.0222974751134D-01  3.366D-02
    7.850000   -9.8711816755979D-02  3.245D-02
    7.900000   -9.5328127423022D-02  3.128D-02
    7.950000   -9.2073242239996D-02  3.016D-02
    8.000000   -8.8941943339046D-02  2.908D-02
    8.050000   -8.5929224651901D-02  2.805D-02
    8.100000   -8.3030284382095D-02  2.706D-02
    8.150000   -8.0240517581729D-02  2.612D-02
    8.200000   -7.7555508855429D-02  2.520D-02
    8.250000   -7.4971025209912D-02  2.433D-02
    8.300000   -7.2483009064399D-02  2.349D-02
    8.350000   -7.0087571433447D-02  2.268D-02
    8.400000   -6.7780985291874D-02  2.191D-02
    8.450000   -6.5559679127808D-02  2.116D-02
    8.500000   -6.3420230689563D-02  2.045D-02
    8.550000   -6.1359360928802D-02  1.976D-02
    8.600000   -5.9373928141703D-02  1.910D-02
    8.650000   -5.7460922308176D-02  1.846D-02
    8.700000   -5.5617459629175D-02  1.785D-02
    8.750000   -5.3840777258930D-02  1.726D-02
    8.800000   -5.2128228231000D-02  1.670D-02
    8.850000   -5.0477276574187D-02  1.615D-02
    8.900000   -4.8885492614815D-02  1.563D-02
    8.950000   -4.7350548461416D-02  1.512D-02
    9.000000   -4.5870213667360D-02  1.464D-02
    9.050000   -4.4442351066479D-02  1.417D-02
    9.100000   -4.3064912777126D-02  1.372D-02
    9.150000   -4.1735936369532D-02  1.328D-02
    9.200000   -4.0453541191174D-02  1.286D-02
    9.250000   -3.9215924845248D-02  1.246D-02
    9.300000   -3.8021359816631D-02  1.207D-02
    9.350000   -3.6868190240633D-02  1.170D-02
    9.400000   -3.5754828809166D-02  1.134D-02
    9.450000   -3.4679753809050D-02  1.099D-02
    9.500000   -3.3641506287934D-02  1.065D-02
    9.550000   -3.2638687342340D-02  1.033D-02
    9.600000   -3.1669955523484D-02  1.001D-02
    9.650000   -3.0734024356185D-02  9.711D-03
    9.700000   -2.9829659965738D-02  9.419D-03
    9.750000   -2.8955678809136D-02  9.138D-03
    9.800000   -2.8110945505585D-02  8.866D-03
    9.850000   -2.7294370762647D-02  8.603D-03
    9.900000   -2.6504909393811D-02  8.350D-03
    9.950000   -2.5741558423524D-02  8.105D-03
   10.000000   -2.5003355275881D-02  7.868D-03
   10.050000   -2.4289376043834D-02  7.640D-03
   10.100000   -2.3598733834795D-02  7.419D-03
   10.150000   -2.2930577189028D-02  7.205D-03
   10.200000   -2.2284088569562D-02  6.999D-03
   10.250000   -2.1658482917761D-02  6.799D-03
   10.300000   -2.1053006273192D-02  6.606D-03
   10.350000   -2.0466934455160D-02  6.419D-03
   10.400000   -1.9899571802366D-02  6.238D-03
   10.450000   -1.9350249968189D-02  6.063D-03
   10.500000   -1.8818326769606D-02  5.894D-03
   10.550000   -1.8303185087055D-02  5.731D-03
   10.600000   -1.7804231812626D-02  5.572D-03
   10.650000   -1.7320896845105D-02  5.419D-03
   10.700000   -1.6852632128782D-02  5.270D-03
   10.750000   -1.6398910735341D-02  5.127D-03
   10.800000   -1.5959225985478D-02  4.987D-03
   10.850000   -1.5533090609381D-02  4.852D-03
   10.900000   -1.5120035944198D-02  4.722D-03
   10.950000   -1.4719611166500D-02  4.595D-03
   11.000000   -1.4331382558200D-02  4.472D-03
   11.050000   -1.3954932804725D-02  4.354D-03
   11.100000   -1.3589860323728D-02  4.238D-03
   11.150000   -1.3235778622943D-02  4.127D-03
   11.200000   -1.2892315686083D-02  4.018D-03
   11.250000   -1.2559113384937D-02  3.913D-03
   11.300000   -1.2235826917599D-02  3.811D-03
   11.350000   -1.1922124270135D-02  3.713D-03
   11.400000   -1.1617685702292D-02  3.617D-03
   11.450000   -1.1322203254453D-02  3.524D-03
   11.500000   -1.1035380276256D-02  3.434D-03
   11.550000   -1.0756930975452D-02  3.346D-03
   11.600000   -1.0486579985676D-02  3.261D-03
   11.650000   -1.0224061952770D-02  3.179D-03
   11.700000   -9.9691211388509D-03  3.099D-03
   11.750000   -9.7215110429198D-03  3.021D-03
   11.800000   -9.4809940377096D-03  2.946D-03
   11.850000   -9.2473410215771D-03  2.873D-03
   11.900000   -9.0203310854488D-03  2.801D-03
   11.950000   -8.7997511934282D-03  2.732D-03
   12.000000   -8.5853958768147D-03  2.665D-03
   12.050000   -8.3770669410502D-03  2.600D-03
   12.100000   -8.1745731847356D-03  2.537D-03
   12.150000   -7.9777301303450D-03  2.475D-03
   12.200000   -7.7863597661210D-03  2.415D-03
   12.250000   -7.6002902987581D-03  2.357D-03
   12.300000   -7.4193559159999D-03  2.300D-03
   12.350000   -7.2433965590529D-03  2.245D-03
   12.400000   -7.0722577048262D-03  2.192D-03
   12.450000   -6.9057901562256D-03  2.140D-03
   12.500000   -6.7438498416568D-03  2.089D-03
   12.550000   -6.5862976225423D-03  2.040D-03
   12.600000   -6.4329991082758D-03  1.993D-03
   12.650000   -6.2838244793748D-03  1.946D-03
   12.700000   -6.1386483169092D-03  1.901D-03
   12.750000   -5.9973494394841D-03  1.857D-03
   12.800000   -5.8598107464262D-03  1.814D-03
   12.850000   -5.7259190673205D-03  1.772D-03
   12.900000   -5.5955650174416D-03  1.732D-03
   12.950000   -5.4686428591613D-03  1.692D-03
   13.000000   -5.3450503684924D-03  1.654D-03
   13.050000   -5.2246887075374D-03  1.616D-03
   13.100000   -5.1074623009737D-03  1.580D-03
   13.150000   -4.9932787184624D-03  1.544D-03
   13.200000   -4.8820485610485D-03  1.509D-03
   13.250000   -4.7736853518803D-03  1.476D-03
   13.300000   -4.6681054318253D-03  1.443D-03
   13.350000   -4.5652278584857D-03  1.411D-03
   13.400000   -4.4649743093416D-03  1.380D-03
   13.450000   -4.3672689890192D-03  1.349D-03
   13.500000   -4.2720385393777D-03  1.320D-03
   13.550000   -4.1792119537911D-03  1.291D-03
   13.600000   -4.0887204942128D-03  1.263D-03
   13.650000   -4.0004976116964D-03  1.236D-03
   13.700000   -3.9144788697077D-03  1.209D-03
   13.750000   -3.8306018705213D-03  1.183D-03
   13.800000   -3.7488061844084D-03  1.157D-03
   13.850000   -3.6690332813718D-03  1.133D-03
   13.900000   -3.5912264655028D-03  1.109D-03
   13.950000   -3.5153308119343D-03  1.085D-03
   14.000000   -3.4412931058114D-03  1.062D-03
   14.050000   -3.3690617839510D-03  1.040D-03
   14.100000   -3.2985868785601D-03  1.018D-03
   14.150000   -3.2298199625477D-03  9.965D-04
   14.200000   -3.1627140977894D-03  9.757D-04
   14.250000   -3.0972237844791D-03  9.554D-04
   14.300000   -3.0333049126038D-03  9.356D-04
   14.350000   -2.9709147155009D-03  9.163D-04
   14.400000   -2.9100117246508D-03  8.975D-04
   14.450000   -2.8505557261997D-03  8.790D-04
   14.500000   -2.7925077196560D-03  8.611D-04
   14.550000   -2.7358298769414D-03  8.435D-04
   14.600000   -2.6804855042797D-03  8.264D-04
   14.650000   -2.6264390041381D-03  8.097D-04
   14.700000   -2.5736558396498D-03  7.933D-04
   14.750000   -2.5221024995340D-03  7.774D-04
   14.800000   -2.4717464646537D-03  7.618D-04
   14.850000   -2.4225561756261D-03  7.466D-04
   14.900000   -2.3745010017606D-03  7.317D-04
   14.950000   -2.3275512108481D-03  7.172D-04
   15.000000   -2.2816779400233D-03  7.030D-04
   15.050000   -2.2368531679735D-03  6.892D-04
   15.100000   -2.1930496878556D-03  6.756D-04
   15.150000   -2.1502410810863D-03  6.624D-04
   15.200000   -2.1084016923354D-03  6.495D-04
   15.250000   -2.0675066050788D-03  6.368D-04
   15.300000   -2.0275316183102D-03  6.245D-04
   15.350000   -1.9884532237133D-03  6.124D-04
   15.400000   -1.9502485840013D-03  6.006D-04
   15.450000   -1.9128955116173D-03  5.891D-04
   15.500000   -1.8763724485004D-03  5.778D-04
   15.550000   -1.8406584463822D-03  5.667D-04
   15.600000   -1.8057331475635D-03  5.560D-04
   15.650000   -1.7715767668735D-03  5.454D-04
   15.700000   -1.7381700737378D-03  5.351D-04
   15.750000   -1.7054943749500D-03  5.250D-04
   15.800000   -1.6735314983658D-03  5.151D-04
   15.850000   -1.6422637766044D-03  5.055D-04
   15.900000   -1.6116740317858D-03  4.961D-04
   15.950000   -1.5817455604958D-03  4.868D-04
   16.000000   -1.5524621192502D-03  4.778D-04
   16.050000   -1.5238079106786D-03  4.689D-04
   16.100000   -1.4957675699937D-03  4.603D-04
   16.150000   -1.4683261516446D-03  4.518D-04
   16.200000   -1.4414691171238D-03  4.435D-04
   16.250000   -1.4151823223658D-03  4.354D-04
   16.300000   -1.3894520061964D-03  4.275D-04
   16.350000   -1.3642647786993D-03  4.197D-04
   16.400000   -1.3396076103666D-03  4.121D-04
   16.450000   -1.3154678210617D-03  4.047D-04
   16.500000   -1.2918330701462D-03  3.974D-04
   16.550000   -1.2686913459355D-03  3.903D-04
   16.600000   -1.2460309564831D-03  3.833D-04
   16.650000   -1.2238405198578D-03  3.764D-04
   16.700000   -1.2021089552110D-03  3.697D-04
   16.750000   -1.1808254739338D-03  3.632D-04
   16.800000   -1.1599795711731D-03  3.567D-04
   16.850000   -1.1395610176560D-03  3.504D-04
   16.900000   -1.1195598514970D-03  3.443D-04
   16.950000   -1.0999663707457D-03  3.382D-04
   17.000000   -1.0807711257050D-03  3.323D-04
   17.050000   -1.0619649117734D-03  3.265D-04
   17.100000   -1.0435387623835D-03  3.209D-04
   17.150000   -1.0254839422512D-03  3.153D-04
   17.200000   -1.0077919406667D-03  3.098D-04
   17.250000   -9.9045446531389D-04  3.045D-04
   17.300000   -9.7346343591740D-04  2.993D-04
   17.350000   -9.5681097831002D-04  2.941D-04
   17.400000   -9.4048941865334D-04  2.891D-04
   17.450000   -9.2449127775580D-04  2.842D-04
   17.500000   -9.0880926559835D-04  2.794D-04
   17.550000   -8.9343627606702D-04  2.746D-04
   17.600000   -8.7836538194792D-04  2.700D-04
   17.650000   -8.6358982980523D-04  2.654D-04
   17.700000   -8.4910303512243D-04  2.610D-04
   17.750000   -8.3489857786870D-04  2.566D-04
   17.800000   -8.2097019767930D-04  2.523D-04
   17.850000   -8.0731178957036D-04  2.481D-04
   17.900000   -7.9391739986353D-04  2.440D-04
   17.950000   -7.8078122172576D-04  2.399D-04
   18.000000   -7.6789759151474D-04  2.360D-04
   18.050000   -7.5526098425242D-04  2.321D-04
   18.100000   -7.4286601071753D-04  2.283D-04
   18.150000   -7.3070741323316D-04  2.245D-04
   18.200000   -7.1878006209911D-04  2.209D-04
   18.250000   -7.0707895245276D-04  2.173D-04
   18.300000   -6.9559920063777D-04  2.137D-04
   18.350000   -6.8433604100174D-04  2.103D-04
   18.400000   -6.7328482290635D-04  2.069D-04
   18.450000   -6.6244100740816D-04  2.035D-04
   18.500000   -6.5180016453187D-04  2.002D-04
   18.550000   -6.4135797032275D-04  1.970D-04
   18.600000   -6.3111020378737D-04  1.939D-04
   18.650000   -6.2105274464363D-04  1.908D-04
   18.700000   -6.1118157020046D-04  1.877D-04
   18.750000   -6.0149275315562D-04  1.848D-04
   18.800000   -5.9198245890291D-04  1.818D-04
   18.850000   -5.8264694305308D-04  1.790D-04
   18.900000   -5.7348254933144D-04  1.762D-04
   18.950000   -5.6448570709341D-04  1.734D-04
   19.000000   -5.5565292916287D-04  1.707D-04
   19.050000   -5.4698080972208D-04  1.680D-04
   19.100000   -5.3846602198261D-04  1.654D-04
   19.150000   -5.3010531655855D-04  1.628D-04
   19.200000   -5.2189551907886D-04  1.603D-04
   19.250000   -5.1383352850235D-04  1.578D-04
   19.300000   -5.0591631526782D-04  1.554D-04
   19.350000   -4.9814091922583D-04  1.530D-04
   19.400000   -4.9050444816477D-04  1.506D-04
   19.450000   -4.8300407590150D-04  1.483D-04
   19.500000   -4.7563704069571D-04  1.461D-04
   19.550000   -4.6840064355413D-04  1.438D-04
   19.600000   -4.6129224685857D-04  1.417D-04
   19.650000   -4.5430927245040D-04  1.395D-04
   19.700000   -4.4744920052670D-04  1.374D-04
   19.750000   -4.4070956793884D-04  1.353D-04
   19.800000   -4.3408796681488D-04  1.333D-04
   19.850000   -4.2758204339786D-04  1.313D-04
   19.900000   -4.2118949628621D-04  1.293D-04
   19.950000   -4.1490807564920D-04  1.274D-04
   20.000000   -4.0873558151932D-04  1.255D-04
   20.050000   -4.0266986278870D-04  1.236D-04
   20.100000   -3.9670881593326D-04  1.218D-04
   20.150000   -3.9085038395280D-04  1.200D-04
   20.200000   -3.8509255498484D-04  1.182D-04
   20.250000   -3.7943336173097D-04  1.165D-04
   20.300000   -3.7387087958081D-04  1.148D-04
   20.350000   -3.6840322636200D-04  1.131D-04
   20.400000   -3.6302856067952D-04  1.114D-04
   20.450000   -3.5774508144721D-04  1.098D-04
   20.500000   -3.5255102649662D-04  1.082D-04
   20.550000   -3.4744467205298D-04  1.067D-04
   20.600000   -3.4242433134261D-04  1.051D-04
   20.650000   -3.3748835412174D-04  1.036D-04
   20.700000   -3.3263512560817D-04  1.021D-04
   20.750000   -3.2786306562908D-04  1.006D-04
   20.800000   -3.2317062787695D-04  9.920D-05
   20.850000   -3.1855629905625D-04  9.778D-05
   20.900000   -3.1401859808406D-04  9.639D-05
   20.950000   -3.0955607545258D-04  9.502D-05
   21.000000   -3.0516731232028D-04  9.367D-05
   21.050000   -3.0085091987350D-04  9.234D-05
   21.100000   -2.9660553857925D-04  9.104D-05
   21.150000   -2.9242983765452D-04  8.976D-05
   21.200000   -2.8832251420968D-04  8.849D-05
   21.250000   -2.8428229260838D-04  8.725D-05
   21.300000   -2.8030792404425D-04  8.603D-05
   21.350000   -2.7639818557445D-04  8.483D-05
   21.400000   -2.7255187991261D-04  8.365D-05
   21.450000   -2.6876783451597D-04  8.249D-05
   21.500000   -2.6504490121481D-04  8.134D-05
   21.550000   -2.6138195557024D-04  8.022D-05
   21.600000   -2.5777789634018D-04  7.911D-05
   21.650000   -2.5423164483648D-04  7.802D-05
   21.700000   -2.5074214471597D-04  7.695D-05
   21.750000   -2.4730836122847D-04  7.590D-05
   21.800000   -2.4392928068155D-04  7.486D-05
   21.850000   -2.4060391012228D-04  7.384D-05
   21.900000   -2.3733127691000D-04  7.283D-05
   21.950000   -2.3411042796329D-04  7.184D-05
   22.000000   -2.3094042971226D-04  7.087D-05
   22.050000   -2.2782036729081D-04  6.991D-05
   22.100000   -2.2474934443409D-04  6.897D-05
   22.150000   -2.2172648277890D-04  6.804D-05
   22.200000   -2.1875092176084D-04  6.713D-05
   22.250000   -2.1582181796847D-04  6.623D-05
   22.300000   -2.1293834482300D-04  6.534D-05
   22.350000   -2.1009969231201D-04  6.447D-05
   22.400000   -2.0730506656024D-04  6.361D-05
   22.450000   -2.0455368940011D-04  6.277D-05
   22.500000   -2.0184479810505D-04  6.193D-05
   22.550000   -1.9917764506819D-04  6.112D-05
   22.600000   -1.9655149742685D-04  6.031D-05
   22.650000   -1.9396563684955D-04  5.952D-05
   22.700000   -1.9141935878009D-04  5.873D-05
   22.750000   -1.8891197287580D-04  5.796D-05
   22.800000   -1.8644280203423D-04  5.721D-05
   22.850000   -1.8401118255959D-04  5.646D-05
   22.900000   -1.8161646362357D-04  5.572D-05
   22.950000   -1.7925800699723D-04  5.500D-05
   23.000000   -1.7693518683726D-04  5.429D-05
   23.050000   -1.7464738952630D-04  5.358D-05
   23.100000   -1.7239401318748D-04  5.289D-05
   23.150000   -1.7017446757881D-04  5.221D-05
   23.200000   -1.6798817382470D-04  5.154D-05
   23.250000   -1.6583456414730D-04  5.088D-05
   23.300000   -1.6371308165209D-04  5.023D-05
   23.350000   -1.6162318005901D-04  4.959D-05
   23.400000   -1.5956432359653D-04  4.895D-05
   23.450000   -1.5753598656967D-04  4.833D-05
   23.500000   -1.5553765336251D-04  4.772D-05
   23.550000   -1.5356881806035D-04  4.711D-05
   23.600000   -1.5162898439775D-04  4.652D-05
   23.650000   -1.4971766543488D-04  4.593D-05
   23.700000   -1.4783438339676D-04  4.535D-05
   23.750000   -1.4597866945811D-04  4.478D-05
   23.800000   -1.4415006363673D-04  4.422D-05
   23.850000   -1.4234811463254D-04  4.367D-05
   23.900000   -1.4057237939504D-04  4.312D-05
   23.950000   -1.3882242328796D-04  4.259D-05
   24.000000   -1.3709781971099D-04  4.206D-05
   24.050000   -1.3539814993850D-04  4.154D-05
   24.100000   -1.3372300312118D-04  4.102D-05
   24.150000   -1.3207197585325D-04  4.052D-05
   24.200000   -1.3044467228256D-04  4.002D-05
   24.250000   -1.2884070378630D-04  3.952D-05
   24.300000   -1.2725968897238D-04  3.904D-05
   24.350000   -1.2570125335508D-04  3.856D-05
   24.400000   -1.2416502935637D-04  3.809D-05
   24.450000   -1.2265065603567D-04  3.762D-05
   24.500000   -1.2115777909117D-04  3.717D-05
   24.550000   -1.1968605069813D-04  3.671D-05
   24.600000   -1.1823512934717D-04  3.627D-05
   24.650000   -1.1680467962815D-04  3.583D-05
   24.700000   -1.1539437223135D-04  3.540D-05
   24.750000   -1.1400388389428D-04  3.497D-05
   24.800000   -1.1263289696812D-04  3.455D-05
   24.850000   -1.1128109979913D-04  3.413D-05
   24.900000   -1.0994818602343D-04  3.373D-05
   24.950000   -1.0863385500258D-04  3.332D-05
   25.000000   -1.0733781133559D-04  3.292D-05
   25.050000   -1.0605976491427D-04  3.253D-05
   25.100000   -1.0479943086973D-04  3.215D-05
   25.150000   -1.0355652924736D-04  3.176D-05
   25.200000   -1.0233078522495D-04  3.139D-05
   25.250000   -1.0112192873325D-04  3.102D-05
   25.300000   -9.9929694511115D-05  3.065D-05
   25.350000   -9.8753821943287D-05  3.029D-05
   25.400000   -9.7594054898181D-05  2.993D-05
   25.450000   -9.6450142108888D-05  2.958D-05
   25.500000   -9.5321836359016D-05  2.924D-05
   25.550000   -9.4208894863632D-05  2.890D-05
   25.600000   -9.3111079106986D-05  2.856D-05
   25.650000   -9.2028154625833D-05  2.823D-05
   25.700000   -9.0959891173040D-05  2.790D-05
   25.750000   -8.9906062446569D-05  2.758D-05
   25.800000   -8.8866445981430D-05  2.726D-05
   25.850000   -8.7840823258874D-05  2.694D-05
   25.900000   -8.6828979544013D-05  2.663D-05
   25.950000   -8.5830703723353D-05  2.632D-05
   26.000000   -8.4845788359645D-05  2.602D-05
   26.050000   -8.3874029529435D-05  2.572D-05
   26.100000   -8.2915226877862D-05  2.543D-05
   26.150000   -8.1969183456178D-05  2.514D-05
   26.200000   -8.1035705559207D-05  2.485D-05
   26.250000   -8.0114602997470D-05  2.457D-05
   26.300000   -7.9205688608636D-05  2.429D-05
   26.350000   -7.8308778529623D-05  2.402D-05
   26.400000   -7.7423691979671D-05  2.375D-05
   26.450000   -7.6550251152109D-05  2.348D-05
   26.500000   -7.5688281432063D-05  2.321D-05
   26.550000   -7.4837610907845D-05  2.295D-05
   26.600000   -7.3998070751668D-05  2.269D-05
   26.650000   -7.3169494894001D-05  2.244D-05
   26.700000   -7.2351720023921D-05  2.219D-05
   26.750000   -7.1544585589463D-05  2.194D-05
   26.800000   -7.0747933689275D-05  2.170D-05
   26.850000   -6.9961609127286D-05  2.146D-05
   26.900000   -6.9185459141335D-05  2.122D-05
   26.950000   -6.8419333729501D-05  2.098D-05
   27.000000   -6.7663085107031D-05  2.075D-05
   27.050000   -6.6916568195674D-05  2.052D-05
   27.100000   -6.6179640080567D-05  2.030D-05
   27.150000   -6.5452160336558D-05  2.007D-05
   27.200000   -6.4733990811112D-05  1.985D-05
   27.250000   -6.4024995624566D-05  1.963D-05
   27.300000   -6.3325041116057D-05  1.942D-05
   27.350000   -6.2633995843754D-05  1.921D-05
   27.400000   -6.1951730476419D-05  1.900D-05
   27.450000   -6.1278117793655D-05  1.879D-05
   27.500000   -6.0613032577421D-05  1.859D-05
   27.550000   -5.9956351829655D-05  1.839D-05
   27.600000   -5.9307954337722D-05  1.819D-05
   27.650000   -5.8667721000703D-05  1.799D-05
   27.700000   -5.8035534557862D-05  1.780D-05
   27.750000   -5.7411279643204D-05  1.761D-05
   27.800000   -5.6794842785663D-05  1.742D-05
   27.850000   -5.6186112300597D-05  1.723D-05
   27.900000   -5.5584978344324D-05  1.705D-05
   27.950000   -5.4991332805606D-05  1.686D-05
   28.000000   -5.4405069251473D-05  1.668D-05
   28.050000   -5.3826082981745D-05  1.651D-05
   28.100000   -5.3254271029194D-05  1.633D-05
   28.150000   -5.2689531996664D-05  1.616D-05
   28.200000   -5.2131766002883D-05  1.599D-05
   28.250000   -5.1580874954343D-05  1.582D-05
   28.300000   -5.1036762165023D-05  1.565D-05
   28.350000   -5.0499332519579D-05  1.549D-05
   28.400000   -4.9968492419125D-05  1.532D-05
   28.450000   -4.9444149618339D-05  1.516D-05
   28.500000   -4.8926213551673D-05  1.500D-05
   28.550000   -4.8414594790005D-05  1.485D-05
   28.600000   -4.7909205584254D-05  1.469D-05
   28.650000   -4.7409959322006D-05  1.454D-05
   28.700000   -4.6916770853731D-05  1.439D-05
   28.750000   -4.6429556384204D-05  1.424D-05
   28.800000   -4.5948233309571D-05  1.409D-05
   28.850000   -4.5472720434849D-05  1.394D-05
   28.900000   -4.5002937756645D-05  1.380D-05
   28.950000   -4.4538806517602D-05  1.366D-05
   29.000000   -4.4080249097808D-05  1.352D-05
   29.050000   -4.3627189232291D-05  1.338D-05
   29.100000   -4.3179551739367D-05  1.324D-05
   29.150000   -4.2737262520729D-05  1.311D-05
   29.200000   -4.2300248778954D-05  1.297D-05
   29.250000   -4.1868438691470D-05  1.284D-05
   29.300000   -4.1441761573707D-05  1.271D-05
   29.350000   -4.1020147824833D-05  1.258D-05
   29.400000   -4.0603528927824D-05  1.245D-05
   29.450000   -4.0191837449564D-05  1.232D-05
   29.500000   -3.9785006769143D-05  1.220D-05
   29.550000   -3.9382971512766D-05  1.208D-05
   29.600000   -3.8985667227708D-05  1.195D-05
   29.650000   -3.8593030328033D-05  1.183D-05
   29.700000   -3.8204998366432D-05  1.171D-05
   29.750000   -3.7821509653816D-05  1.160D-05
   29.800000   -3.7442503531157D-05  1.148D-05
   29.850000   -3.7067920260842D-05  1.137D-05
   29.900000   -3.6697700918030D-05  1.125D-05
   29.950000   -3.6331787553775D-05  1.114D-05
   30.000000   -3.5970123032032D-05  1.103D-05
   30.050000   -3.5612651029705D-05  1.092D-05
   30.100000   -3.5259316199781D-05  1.081D-05
   30.150000   -3.4910063790888D-05  1.070D-05
   30.200000   -3.4564840136566D-05  1.060D-05
   30.250000   -3.4223592111742D-05  1.049D-05
   30.300000   -3.3886267513299D-05  1.039D-05
   30.350000   -3.3552814951395D-05  1.029D-05
   30.400000   -3.3223183632097D-05  1.019D-05
   30.450000   -3.2897323683566D-05  1.009D-05
   30.500000   -3.2575185829966D-05  9.988D-06
   30.550000   -3.2256721554583D-05  9.891D-06
   30.600000   -3.1941883154223D-05  9.794D-06
   30.650000   -3.1630623413112D-05  9.699D-06
   30.700000   -3.1322896037807D-05  9.604D-06
   30.750000   -3.1018655222367D-05  9.511D-06
   30.800000   -3.0717855974550D-05  9.419D-06
   30.850000   -3.0420453789696D-05  9.327D-06
   30.900000   -3.0126404976921D-05  9.237D-06
   30.950000   -2.9835666387364D-05  9.148D-06
   31.000000   -2.9548195468578D-05  9.060D-06
   31.050000   -2.9263950373290D-05  8.973D-06
   31.100000   -2.8982889796355D-05  8.887D-06
   31.150000   -2.8704972974790D-05  8.801D-06
   31.200000   -2.8430159850891D-05  8.717D-06
   31.250000   -2.8158410909184D-05  8.634D-06
   31.300000   -2.7889687122097D-05  8.551D-06
   31.350000   -2.7623950058712D-05  8.470D-06
   31.400000   -2.7361161939157D-05  8.389D-06
   31.450000   -2.7101285308472D-05  8.310D-06
   31.500000   -2.6844283417164D-05  8.231D-06
   31.550000   -2.6590120003791D-05  8.153D-06
   31.600000   -2.6338759294994D-05  8.076D-06
   31.650000   -2.6090166005514D-05  8.000D-06
   31.700000   -2.5844305392595D-05  7.924D-06
   31.750000   -2.5601143201635D-05  7.850D-06
   31.800000   -2.5360645611860D-05  7.776D-06
   31.850000   -2.5122779345062D-05  7.703D-06
   31.900000   -2.4887511556911D-05  7.631D-06
   31.950000   -2.4654809782605D-05  7.559D-06
   32.000000   -2.4424642263078D-05  7.489D-06
   32.050000   -2.4196977347028D-05  7.419D-06
   32.100000   -2.3971784034564D-05  7.350D-06
   32.150000   -2.3749031705422D-05  7.282D-06
   32.200000   -2.3528690227705D-05  7.214D-06
   32.250000   -2.3310729740452D-05  7.147D-06
   32.300000   -2.3095120925475D-05  7.081D-06
   32.350000   -2.2881834898656D-05  7.016D-06