
variables = "r", "tB(r)", "Uncertainty"
zone T = "State 1 qB(r)  5412rref2_74RRRfulls"

    0.600000   -3.9762955668465D-02  6.451D-03
    0.650000   -3.6654863182472D-02  5.958D-03
    0.700000   -3.3087291044453D-02  5.390D-03
    0.750000   -2.9150346402188D-02  4.761D-03
    0.800000   -2.4978780495253D-02  4.089D-03
    0.850000   -2.0742818789582D-02  3.402D-03
    0.900000   -1.6631049144831D-02  2.729D-03
    0.950000   -1.2827295876638D-02  2.100D-03
    1.000000   -9.4855921880880D-03  1.542D-03
    1.050000   -6.7087757103433D-03  1.072D-03
    1.100000   -4.5360746290342D-03  6.995D-04
    1.150000   -2.9430140635810D-03  4.239D-04
    1.200000   -1.8535439571496D-03  2.348D-04
    1.250000   -1.1606955826429D-03  1.163D-04
    1.300000   -7.4975765111399D-04  5.035D-05
    1.350000   -5.1785862141604D-04  2.065D-05
    1.400000   -3.8586821472441D-04  1.280D-05
    1.450000   -3.0165036577367D-04  1.086D-05
    1.500000   -2.3650876387895D-04  8.597D-06
    1.550000   -1.7813587167568D-04  6.072D-06
    1.600000   -1.2328273108120D-04  3.704D-06
    1.650000   -7.2212314806936D-05  1.764D-06
    1.700000   -2.5579120480128D-05  4.494D-07
    1.750000    1.6675160886798D-05  1.734D-07
    1.800000    5.5262039308037D-05  2.844D-07
    1.850000    9.1108396489835D-05  6.077D-07
    1.900000    1.2501206929145D-04  1.347D-06
    1.950000    1.5753937886409D-04  2.225D-06
    2.000000    1.8910837076426D-04  3.109D-06
    2.050000    2.2013279503521D-04  3.938D-06
    2.100000    2.5112481115359D-04  4.678D-06
    2.150000    2.8271205195289D-04  5.311D-06
    2.200000    3.1557625263225D-04  5.823D-06
    2.250000    3.5034874308515D-04  6.207D-06
    2.300000    3.8750291379421D-04  6.463D-06
    2.350000    4.2727378827384D-04  6.602D-06
    2.400000    4.6961953336028D-04  6.641D-06
    2.450000    5.1422583933350D-04  6.600D-06
    2.500000    5.6054480814202D-04  6.500D-06
    2.550000    6.0785576113110D-04  6.361D-06
    2.600000    6.5533515605038D-04  6.200D-06
    2.650000    7.0212503090333D-04  6.033D-06
    2.700000    7.4739265130899D-04  5.872D-06
    2.750000    7.9037731833202D-04  5.729D-06
    2.800000    8.3042302372834D-04  5.615D-06
    2.850000    8.6699759864106D-04  5.538D-06
    2.900000    8.9970019881983D-04  5.502D-06
    2.950000    9.2825953391868D-04  5.510D-06
    3.000000    9.5252535173038D-04  5.559D-06
    3.050000    9.7245549578195D-04  5.645D-06
    3.100000    9.8810050268480D-04  5.760D-06
    3.150000    9.9958729379077D-04  5.897D-06
    3.200000    1.0071031096874D-03  6.047D-06
    3.250000    1.0108804737589D-03  6.201D-06
    3.300000    1.0111836699981D-03  6.353D-06
    3.350000    1.0082969844821D-03  6.497D-06
    3.400000    1.0025147852893D-03  6.629D-06
    3.450000    9.9413339384226D-04  6.745D-06
    3.500000    9.8344462188509D-04  6.843D-06
    3.550000    9.7073080285517D-04  6.922D-06
    3.600000    9.5626112558496D-04  6.981D-06
    3.650000    9.4028907476808D-04  7.020D-06
    3.700000    9.2305079060854D-04  7.040D-06
    3.750000    9.0476417507110D-04  7.042D-06
    3.800000    8.8562859087390D-04  7.026D-06
    3.850000    8.6582501948894D-04  6.994D-06
    3.900000    8.4551656437869D-04  6.948D-06
    3.950000    8.2484920451246D-04  6.888D-06
    4.000000    8.0395272030960D-04  6.815D-06
    4.050000    7.8294172928277D-04  6.732D-06
    4.100000    7.6191678174021D-04  6.640D-06
    4.150000    7.4096547801881D-04  6.539D-06
    4.200000    7.2016357800479D-04  6.432D-06
    4.250000    6.9957608134295D-04  6.318D-06
    4.300000    6.7925826294005D-04  6.200D-06
    4.350000    6.5925665333468D-04  6.077D-06
    4.400000    6.3960995742410D-04  5.952D-06
    4.450000    6.2034990808182D-04  5.824D-06
    4.500000    6.0150205352125D-04  5.694D-06
    4.550000    5.8308647899427D-04  5.564D-06
    4.600000    5.6511846467383D-04  5.433D-06
    4.650000    5.4760908245222D-04  5.302D-06
    4.700000    5.3056573497286D-04  5.171D-06
    4.750000    5.1399264056852D-04  5.042D-06
    4.800000    4.9789126795809D-04  4.913D-06
    4.850000    4.8226072459960D-04  4.786D-06
    4.900000    4.6709810254610D-04  4.661D-06
    4.950000    4.5239878552883D-04  4.537D-06
    5.000000    4.3815672082281D-04  4.416D-06
    5.050000    4.2436465924882D-04  4.297D-06
    5.100000    4.1101436644696D-04  4.180D-06
    5.150000    3.9809680832958D-04  4.065D-06
    5.200000    3.8560231339302D-04  3.953D-06
    5.250000    3.7352071434401D-04  3.844D-06
    5.300000    3.6184147128041D-04  3.737D-06
    5.350000    3.5055377846087D-04  3.633D-06
    5.400000    3.3964665650508D-04  3.532D-06
    5.450000    3.2910903168598D-04  3.433D-06
    5.500000    3.1892980380901D-04  3.337D-06
    5.550000    3.0909790401978D-04  3.243D-06
    5.600000    2.9960234374168D-04  3.152D-06
    5.650000    2.9043225581662D-04  3.063D-06
    5.700000    2.8157692880623D-04  2.977D-06
    5.750000    2.7302583530590D-04  2.894D-06
    5.800000    2.6476865502892D-04  2.813D-06
    5.850000    2.5679529333313D-04  2.734D-06
    5.900000    2.4909589578547D-04  2.657D-06
    5.950000    2.4166085929176D-04  2.583D-06
    6.000000    2.3448084025705D-04  2.511D-06
    6.050000    2.2754676018770D-04  2.441D-06
    6.100000    2.2084980909707D-04  2.374D-06
    6.150000    2.1438144703349D-04  2.308D-06
    6.200000    2.0813340401048D-04  2.244D-06
    6.250000    2.0209767858462D-04  2.183D-06
    6.300000    1.9626653529648D-04  2.123D-06
    6.350000    1.9063250116266D-04  2.065D-06
    6.400000    1.8518836138323D-04  2.009D-06
    6.450000    1.7992715440776D-04  1.954D-06
    6.500000    1.7484216648461D-04  1.901D-06
    6.550000    1.6992692580135D-04  1.850D-06
    6.600000    1.6517519631003D-04  1.801D-06
    6.650000    1.6058097131807D-04  1.752D-06
    6.700000    1.5613846691422D-04  1.706D-06
    6.750000    1.5184211528937D-04  1.661D-06
    6.800000    1.4768655800318D-04  1.617D-06
    6.850000    1.4366663923974D-04  1.574D-06
    6.900000    1.3977739908928D-04  1.533D-06
    6.950000    1.3601406688649D-04  1.493D-06
    7.000000    1.3237205463145D-04  1.455D-06
    7.050000    1.2884695051445D-04  1.417D-06
    7.100000    1.2543451256218D-04  1.381D-06
    7.150000    1.2213066241944D-04  1.345D-06
    7.200000    1.1893147927755D-04  1.311D-06
    7.250000    1.1583319395816D-04  1.278D-06
    7.300000    1.1283218315903D-04  1.246D-06
    7.350000    1.0992496386631D-04  1.214D-06
    7.400000    1.0710818793641D-04  1.184D-06
    7.450000    1.0437863684924D-04  1.155D-06
    7.500000    1.0173321663307D-04  1.126D-06
    7.550000    9.9168952960743D-05  1.098D-06
    7.600000    9.6682986415782D-05  1.071D-06
    7.650000    9.4272567926465D-05  1.045D-06
    7.700000    9.1935054365182D-05  1.020D-06
    7.750000    8.9667904310071D-05  9.952D-07
    7.800000    8.7468673965455D-05  9.713D-07
    7.850000    8.5335013237353D-05  9.481D-07
    7.900000    8.3264661960033D-05  9.255D-07
    7.950000    8.1255446269481D-05  9.036D-07
    8.000000    7.9305275119474D-05  8.823D-07
    8.050000    7.7412136935870D-05  8.616D-07
    8.100000    7.5574096404711D-05  8.415D-07
    8.150000    7.3789291389668D-05  8.219D-07
    8.200000    7.2055929974415D-05  8.029D-07
    8.250000    7.0372287625519D-05  7.845D-07
    8.300000    6.8736704471517D-05  7.665D-07
    8.350000    6.7147582693859D-05  7.491D-07
    8.400000    6.5603384025550D-05  7.321D-07
    8.450000    6.4102627353359D-05  7.156D-07
    8.500000    6.2643886419584D-05  6.995D-07
    8.550000    6.1225787619452D-05  6.839D-07
    8.600000    5.9847007890358D-05  6.687D-07
    8.650000    5.8506272689252D-05  6.539D-07
    8.700000    5.7202354054602D-05  6.396D-07
    8.750000    5.5934068749439D-05  6.256D-07
    8.800000    5.4700276482205D-05  6.119D-07
    8.850000    5.3499878202103D-05  5.987D-07
    8.900000    5.2331814465894D-05  5.857D-07
    8.950000    5.1195063873102D-05  5.732D-07
    9.000000    5.0088641566766D-05  5.609D-07
    9.050000    4.9011597796962D-05  5.490D-07
    9.100000    4.7963016544396D-05  5.374D-07
    9.150000    4.6942014201559D-05  5.260D-07
    9.200000    4.5947738308929D-05  5.150D-07
    9.250000    4.4979366343901D-05  5.043D-07
    9.300000    4.4036104560146D-05  4.938D-07
    9.350000    4.3117186875262D-05  4.836D-07
    9.400000    4.2221873804618D-05  4.736D-07
    9.450000    4.1349451439391D-05  4.639D-07
    9.500000    4.0499230466924D-05  4.545D-07
    9.550000    3.9670545231516D-05  4.453D-07
    9.600000    3.8862752833988D-05  4.363D-07
    9.650000    3.8075232268232D-05  4.275D-07
    9.700000    3.7307383593264D-05  4.190D-07
    9.750000    3.6558627139164D-05  4.106D-07
    9.800000    3.5828402745483D-05  4.025D-07
    9.850000    3.5116169030701D-05  3.945D-07
    9.900000    3.4421402691385D-05  3.868D-07
    9.950000    3.3743597829816D-05  3.792D-07
   10.000000    3.3082265308781D-05  3.719D-07
   10.050000    3.2436932132460D-05  3.647D-07
   10.100000    3.1807140852188D-05  3.576D-07
   10.150000    3.1192448996116D-05  3.508D-07
   10.200000    3.0592428521679D-05  3.441D-07
   10.250000    3.0006665289936D-05  3.375D-07
   10.300000    2.9434758560836D-05  3.311D-07
   10.350000    2.8876320508528D-05  3.249D-07
   10.400000    2.8330975755851D-05  3.188D-07
   10.450000    2.7798360927187D-05  3.128D-07
   10.500000    2.7278124218927D-05  3.070D-07
   10.550000    2.6769924986778D-05  3.013D-07
   10.600000    2.6273433349212D-05  2.958D-07
   10.650000    2.5788329806378D-05  2.903D-07
   10.700000    2.5314304873831D-05  2.850D-07
   10.750000    2.4851058730450D-05  2.798D-07
   10.800000    2.4398300879958D-05  2.748D-07
   10.850000    2.3955749825487D-05  2.698D-07
   10.900000    2.3523132756615D-05  2.650D-07
   10.950000    2.3100185248397D-05  2.602D-07
   11.000000    2.2686650971871D-05  2.556D-07
   11.050000    2.2282281415558D-05  2.510D-07
   11.100000    2.1886835617546D-05  2.466D-07
   11.150000    2.1500079907655D-05  2.423D-07
   11.200000    2.1121787659345D-05  2.380D-07
   11.250000    2.0751739050911D-05  2.339D-07
   11.300000    2.0389720835625D-05  2.298D-07
   11.350000    2.0035526120438D-05  2.258D-07
   11.400000    1.9688954152917D-05  2.220D-07
   11.450000    1.9349810116051D-05  2.181D-07
   11.500000    1.9017904930663D-05  2.144D-07
   11.550000    1.8693055065062D-05  2.108D-07
   11.600000    1.8375082351696D-05  2.072D-07
   11.650000    1.8063813810488D-05  2.037D-07
   11.700000    1.7759081478629D-05  2.003D-07
   11.750000    1.7460722246531D-05  1.969D-07
   11.800000    1.7168577699716D-05  1.936D-07
   11.850000    1.6882493966421D-05  1.904D-07
   11.900000    1.6602321570675D-05  1.873D-07
   11.950000    1.6327915290628D-05  1.842D-07
   12.000000    1.6059134021944D-05  1.812D-07
   12.050000    1.5795840646069D-05  1.782D-07
   12.100000    1.5537901903138D-05  1.753D-07
   12.150000    1.5285188269413D-05  1.725D-07
   12.200000    1.5037573839003D-05  1.697D-07
   12.250000    1.4794936209756D-05  1.670D-07
   12.300000    1.4557156373140D-05  1.643D-07
   12.350000    1.4324118607961D-05  1.617D-07
   12.400000    1.4095710377776D-05  1.591D-07
   12.450000    1.3871822231855D-05  1.566D-07
   12.500000    1.3652347709575D-05  1.541D-07
   12.550000    1.3437183248084D-05  1.517D-07
   12.600000    1.3226228093144D-05  1.493D-07
   12.650000    1.3019384213023D-05  1.470D-07
   12.700000    1.2816556215310D-05  1.447D-07
   12.750000    1.2617651266559D-05  1.425D-07
   12.800000    1.2422579014652D-05  1.403D-07
   12.850000    1.2231251513779D-05  1.381D-07
   12.900000    1.2043583151945D-05  1.360D-07
   12.950000    1.1859490580889D-05  1.339D-07
   13.000000    1.1678892648361D-05  1.319D-07
   13.050000    1.1501710332646D-05  1.299D-07
   13.100000    1.1327866679255D-05  1.279D-07
   13.150000    1.1157286739712D-05  1.260D-07
   13.200000    1.0989897512363D-05  1.241D-07
   13.250000    1.0825627885112D-05  1.223D-07
   13.300000    1.0664408580057D-05  1.205D-07
   13.350000    1.0506172099908D-05  1.187D-07
   13.400000    1.0350852676158D-05  1.169D-07
   13.450000    1.0198386218936D-05  1.152D-07
   13.500000    1.0048710268468D-05  1.135D-07
   13.550000    9.9017639481217D-06  1.119D-07
   13.600000    9.7574879189302D-06  1.102D-07
   13.650000    9.6158243355991D-06  1.086D-07
   13.700000    9.4767168038912D-06  1.071D-07
   13.750000    9.3401103393810D-06  1.055D-07
   13.800000    9.2059513275134D-06  1.040D-07
   13.850000    9.0741874849162D-06  1.025D-07
   13.900000    8.9447678219370D-06  1.011D-07
   13.950000    8.8176426063548D-06  9.963D-08
   14.000000    8.6927633282214D-06  9.823D-08
   14.050000    8.5700826658065D-06  9.684D-08
   14.100000    8.4495544525914D-06  9.548D-08
   14.150000    8.3311336452942D-06  9.415D-08
   14.200000    8.2147762928732D-06  9.283D-08
   14.250000    8.1004395064918D-06  9.154D-08
   14.300000    7.9880814303993D-06  9.028D-08
   14.350000    7.8776612137032D-06  8.903D-08
   14.400000    7.7691389830053D-06  8.781D-08
   14.450000    7.6624758158684D-06  8.660D-08
   14.500000    7.5576337150804D-06  8.542D-08
   14.550000    7.4545755836980D-06  8.426D-08
   14.600000    7.3532652008500D-06  8.311D-08
   14.650000    7.2536671982567D-06  8.199D-08
   14.700000    7.1557470374545D-06  8.088D-08
   14.750000    7.0594709876983D-06  7.980D-08
   14.800000    6.9648061045278D-06  7.873D-08
   14.850000    6.8717202089580D-06  7.768D-08
   14.900000    6.7801818672881D-06  7.664D-08
   14.950000    6.6901603715139D-06  7.563D-08
   15.000000    6.6016257203058D-06  7.463D-08
   15.050000    6.5145486005371D-06  7.365D-08
   15.100000    6.4289003693741D-06  7.268D-08
   15.150000    6.3446530368613D-06  7.173D-08
   15.200000    6.2617792490263D-06  7.079D-08
   15.250000    6.1802522714748D-06  6.987D-08
   15.300000    6.1000459734466D-06  6.897D-08
   15.350000    6.0211348123391D-06  6.808D-08
   15.400000    5.9434938186767D-06  6.720D-08
   15.450000    5.8670985814962D-06  6.634D-08
   15.500000    5.7919252341611D-06  6.549D-08
   15.550000    5.7179504405785D-06  6.465D-08
   15.600000    5.6451513817929D-06  6.383D-08
   15.650000    5.5735057429738D-06  6.302D-08
   15.700000    5.5029917007592D-06  6.222D-08
   15.750000    5.4335879109617D-06  6.144D-08
   15.800000    5.3652734966085D-06  6.067D-08
   15.850000    5.2980280363305D-06  5.991D-08
   15.900000    5.2318315530520D-06  5.916D-08
   15.950000    5.1666645030178D-06  5.843D-08
   16.000000    5.1025077651104D-06  5.770D-08
   16.050000    5.0393426304518D-06  5.699D-08
   16.100000    4.9771507923164D-06  5.628D-08
   16.150000    4.9159143363046D-06  5.559D-08
   16.200000    4.8556157307817D-06  5.491D-08
   16.250000    4.7962378175830D-06  5.424D-08
   16.300000    4.7377638029757D-06  5.358D-08
   16.350000    4.6801772488530D-06  5.293D-08
   16.400000    4.6234620641798D-06  5.229D-08
   16.450000    4.5676024966621D-06  5.166D-08
   16.500000    4.5125831246302D-06  5.104D-08
   16.550000    4.4583888491665D-06  5.042D-08
   16.600000    4.4050048864086D-06  4.982D-08
   16.650000    4.3524167600869D-06  4.923D-08
   16.700000    4.3006102942439D-06  4.864D-08
   16.750000    4.2495716061466D-06  4.806D-08
   16.800000    4.1992870993997D-06  4.750D-08
   16.850000    4.1497434572205D-06  4.694D-08
   16.900000    4.1009276359007D-06  4.638D-08
   16.950000    4.0528268584458D-06  4.584D-08
   17.000000    4.0054286083679D-06  4.531D-08
   17.050000    3.9587206236429D-06  4.478D-08
   17.100000    3.9126908908287D-06  4.426D-08
   17.150000    3.8673276393373D-06  4.374D-08
   17.200000    3.8226193358509D-06  4.324D-08
   17.250000    3.7785546788693D-06  4.274D-08
   17.300000    3.7351225934310D-06  4.225D-08
   17.350000    3.6923122259289D-06  4.177D-08
   17.400000    3.6501129390906D-06  4.129D-08
   17.450000    3.6085143070627D-06  4.082D-08
   17.500000    3.5675061106416D-06  4.036D-08
   17.550000    3.5270783326033D-06  3.990D-08
   17.600000    3.4872211531728D-06  3.945D-08
   17.650000    3.4479249455863D-06  3.900D-08
   17.700000    3.4091802717793D-06  3.857D-08
   17.750000    3.3709778781783D-06  3.813D-08
   17.800000    3.3333086915973D-06  3.771D-08
   17.850000    3.2961638152419D-06  3.729D-08
   17.900000    3.2595345247947D-06  3.687D-08
   17.950000    3.2234122646245D-06  3.647D-08
   18.000000    3.1877886440658D-06  3.606D-08
   18.050000    3.1526554338027D-06  3.567D-08
   18.100000    3.1180045623397D-06  3.527D-08
   18.150000    3.0838281125533D-06  3.489D-08
   18.200000    3.0501183183338D-06  3.451D-08
   18.250000    3.0168675613137D-06  3.413D-08
   18.300000    2.9840683676554D-06  3.376D-08
   18.350000    2.9517134049424D-06  3.339D-08
   18.400000    2.9197954791296D-06  3.303D-08
   18.450000    2.8883075315689D-06  3.268D-08
   18.500000    2.8572426361177D-06  3.233D-08
   18.550000    2.8265939962948D-06  3.198D-08
   18.600000    2.7963549425273D-06  3.164D-08
   18.650000    2.7665189294491D-06  3.130D-08
   18.700000    2.7370795332677D-06  3.097D-08
   18.750000    2.7080304492012D-06  3.064D-08
   18.800000    2.6793654889551D-06  3.031D-08
   18.850000    2.6510785782835D-06  2.999D-08
   18.900000    2.6231637545901D-06  2.968D-08
   18.950000    2.5956151646016D-06  2.937D-08
   19.000000    2.5684270620665D-06  2.906D-08
   19.050000    2.5415938055466D-06  2.876D-08
   19.100000    2.5151098562426D-06  2.846D-08
   19.150000    2.4889697758421D-06  2.816D-08
   19.200000    2.4631682244701D-06  2.787D-08
   19.250000    2.4376999586490D-06  2.758D-08
   19.300000    2.4125598293206D-06  2.730D-08
   19.350000    2.3877427799084D-06  2.702D-08
   19.400000    2.3632438444286D-06  2.674D-08
   19.450000    2.3390581456389D-06  2.647D-08
   19.500000    2.3151808932332D-06  2.620D-08
   19.550000    2.2916073820820D-06  2.593D-08
   19.600000    2.2683329905028D-06  2.567D-08
   19.650000    2.2453531785739D-06  2.541D-08
   19.700000    2.2226634864950D-06  2.515D-08
   19.750000    2.2002595329684D-06  2.490D-08
   19.800000    2.1781370136269D-06  2.465D-08
   19.850000    2.1562916995029D-06  2.440D-08
   19.900000    2.1347194355157D-06  2.416D-08
   19.950000    2.1134161390040D-06  2.391D-08
   20.000000    2.0923777982891D-06  2.368D-08
   20.050000    2.0716004712743D-06  2.344D-08
   20.100000    2.0510802840557D-06  2.321D-08
   20.150000    2.0308134295994D-06  2.298D-08
   20.200000    2.0107961664091D-06  2.275D-08
   20.250000    1.9910248172488D-06  2.253D-08
   20.300000    1.9714957678860D-06  2.231D-08
   20.350000    1.9522054658636D-06  2.209D-08
   20.400000    1.9331504192901D-06  2.188D-08
   20.450000    1.9143271956711D-06  2.166D-08
   20.500000    1.8957324207543D-06  2.145D-08
   20.550000    1.8773627774089D-06  2.124D-08
   20.600000    1.8592150045151D-06  2.104D-08
   20.650000    1.8412858958967D-06  2.084D-08
   20.700000    1.8235722992606D-06  2.064D-08
   20.750000    1.8060711151634D-06  2.044D-08
   20.800000    1.7887792960126D-06  2.024D-08
   20.850000    1.7716938450641D-06  2.005D-08
   20.900000    1.7548118154688D-06  1.986D-08
   20.950000    1.7381303093165D-06  1.967D-08
   21.000000    1.7216464767180D-06  1.948D-08
   21.050000    1.7053575148901D-06  1.930D-08
   21.100000    1.6892606672782D-06  1.912D-08
   21.150000    1.6733532226765D-06  1.894D-08
   21.200000    1.6576325143897D-06  1.876D-08
   21.250000    1.6420959193919D-06  1.858D-08
   21.300000    1.6267408575175D-06  1.841D-08
   21.350000    1.6115647906564D-06  1.824D-08
   21.400000    1.5965652219823D-06  1.807D-08
   21.450000    1.5817396951790D-06  1.790D-08
   21.500000    1.5670857936987D-06  1.773D-08
   21.550000    1.5526011400216D-06  1.757D-08
   21.600000    1.5382833949430D-06  1.741D-08
   21.650000    1.5241302568681D-06  1.725D-08
   21.700000    1.5101394611231D-06  1.709D-08
   21.750000    1.4963087792791D-06  1.693D-08
   21.800000    1.4826360184898D-06  1.678D-08
   21.850000    1.4691190208528D-06  1.663D-08
   21.900000    1.4557556627655D-06  1.647D-08
   21.950000    1.4425438543045D-06  1.633D-08
   22.000000    1.4294815386213D-06  1.618D-08
   22.050000    1.4165666913480D-06  1.603D-08
   22.100000    1.4037973200054D-06  1.589D-08
   22.150000    1.3911714634315D-06  1.574D-08
   22.200000    1.3786871912324D-06  1.560D-08
   22.250000    1.3663426032112D-06  1.546D-08
   22.300000    1.3541358288515D-06  1.533D-08
   22.350000    1.3420650267753D-06  1.519D-08
   22.400000    1.3301283842308D-06  1.505D-08
   22.450000    1.3183241165806D-06  1.492D-08
   22.500000    1.3066504668126D-06  1.479D-08
   22.550000    1.2951057050485D-06  1.466D-08
   22.600000    1.2836881280613D-06  1.453D-08
   22.650000    1.2723960588183D-06  1.440D-08
   22.700000    1.2612278460132D-06  1.427D-08
   22.750000    1.2501818636196D-06  1.415D-08
   22.800000    1.2392565104473D-06  1.403D-08
   22.850000    1.2284502097148D-06  1.390D-08
   22.900000    1.2177614086200D-06  1.378D-08
   22.950000    1.2071885779330D-06  1.366D-08
   23.000000    1.1967302115731D-06  1.354D-08
   23.050000    1.1863848262263D-06  1.343D-08
   23.100000    1.1761509609431D-06  1.331D-08
   23.150000    1.1660271767537D-06  1.320D-08
   23.200000    1.1560120562988D-06  1.308D-08
   23.250000    1.1461042034533D-06  1.297D-08
   23.300000    1.1363022429606D-06  1.286D-08
   23.350000    1.1266048200899D-06  1.275D-08
   23.400000    1.1170106002725D-06  1.264D-08
   23.450000    1.1075182687668D-06  1.253D-08
   23.500000    1.0981265303241D-06  1.243D-08
   23.550000    1.0888341088574D-06  1.232D-08
   23.600000    1.0796397471155D-06  1.222D-08
   23.650000    1.0705422063682D-06  1.212D-08
   23.700000    1.0615402660970D-06  1.201D-08
   23.750000    1.0526327236886D-06  1.191D-08
   23.800000    1.0438183941337D-06  1.181D-08
   23.850000    1.0350961097393D-06  1.172D-08
   23.900000    1.0264647198269D-06  1.162D-08
   23.950000    1.0179230904684D-06  1.152D-08
   24.000000    1.0094701041940D-06  1.143D-08
   24.050000    1.0011046597238D-06  1.133D-08
   24.100000    9.9282567170313D-07  1.124D-08
   24.150000    9.8463207043793D-07  1.114D-08
   24.200000    9.7652280163206D-07  1.105D-08
   24.250000    9.6849682614966D-07  1.096D-08
   24.300000    9.6055311974830D-07  1.087D-08
   24.350000    9.5269067284747D-07  1.078D-08
   24.400000    9.4490849028452D-07  1.069D-08
   24.450000    9.3720559108515D-07  1.061D-08
   24.500000    9.2958100822140D-07  1.052D-08
   24.550000    9.2203378840285D-07  1.044D-08
   24.600000    9.1456299183660D-07  1.035D-08
   24.650000    9.0716769202054D-07  1.027D-08
   24.700000    8.9984697552611D-07  1.018D-08
   24.750000    8.9259994178528D-07  1.010D-08
   24.800000    8.8542570289198D-07  1.002D-08
   24.850000    8.7832338338693D-07  9.941D-09
   24.900000    8.7129212007149D-07  9.862D-09
   24.950000    8.6433106179870D-07  9.783D-09
   25.000000    8.5743936929746D-07  9.705D-09
   25.050000    8.5061621496767D-07  9.628D-09
   25.100000    8.4386078270647D-07  9.551D-09
   25.150000    8.3717226771993D-07  9.476D-09
   25.200000    8.3054987634515D-07  9.401D-09
   25.250000    8.2399282588055D-07  9.326D-09
   25.300000    8.1750034440378D-07  9.253D-09
   25.350000    8.1107167061033D-07  9.180D-09
   25.400000    8.0470605364385D-07  9.108D-09
   25.450000    7.9840275293264D-07  9.037D-09
   25.500000    7.9216103802823D-07  8.966D-09
   25.550000    7.8598018844810D-07  8.896D-09
   25.600000    7.7985949352463D-07  8.827D-09
   25.650000    7.7379825224773D-07  8.758D-09
   25.700000    7.6779577311381D-07  8.690D-09
   25.750000    7.6185137398709D-07  8.623D-09
   25.800000    7.5596438194224D-07  8.557D-09
   25.850000    7.5013413313613D-07  8.491D-09
   25.900000    7.4435997266078D-07  8.425D-09
   25.950000    7.3864125440471D-07  8.361D-09
   26.000000    7.3297734092042D-07  8.296D-09
   26.050000    7.2736760329609D-07  8.233D-09
   26.100000    7.2181142101887D-07  8.170D-09
   26.150000    7.1630818184866D-07  8.108D-09
   26.200000    7.1085728169384D-07  8.046D-09
   26.250000    7.0545812448707D-07  7.985D-09
   26.300000    7.0011012206522D-07  7.924D-09
   26.350000    6.9481269404299D-07  7.865D-09
   26.400000    6.8956526770950D-07  7.805D-09
   26.450000    6.8436727789564D-07  7.746D-09
   26.500000    6.7921816687478D-07  7.688D-09
   26.550000    6.7411738424053D-07  7.630D-09
   26.600000    6.6906438680531D-07  7.573D-09
   26.650000    6.6405863848643D-07  7.516D-09
   26.700000    6.5909961020878D-07  7.460D-09
   26.750000    6.5418677978674D-07  7.405D-09
   26.800000    6.4931963183518D-07  7.350D-09
   26.850000    6.4449765765758D-07  7.295D-09
   26.900000    6.3972035515494D-07  7.241D-09
   26.950000    6.3498722873254D-07  7.187D-09
   27.000000    6.3029778917983D-07  7.134D-09
   27.050000    6.2565155360621D-07  7.082D-09
   27.100000    6.2104804533541D-07  7.030D-09
   27.150000    6.1648679381019D-07  6.978D-09
   27.200000    6.1196733450742D-07  6.927D-09
   27.250000    6.0748920884900D-07  6.876D-09
   27.300000    6.0305196411902D-07  6.826D-09
   27.350000    5.9865515336844D-07  6.776D-09
   27.400000    5.9429833534260D-07  6.727D-09
   27.450000    5.8998107438800D-07  6.678D-09
   27.500000    5.8570294038393D-07  6.630D-09
   27.550000    5.8146350864922D-07  6.582D-09
   27.600000    5.7726235986977D-07  6.534D-09
   27.650000    5.7309908002186D-07  6.487D-09
   27.700000    5.6897326029758D-07  6.440D-09
   27.750000    5.6488449702402D-07  6.394D-09
   27.800000    5.6083239159280D-07  6.348D-09
   27.850000    5.5681655038967D-07  6.303D-09
   27.900000    5.5283658472402D-07  6.258D-09
   27.950000    5.4889211074810D-07  6.213D-09
   28.000000    5.4498274940311D-07  6.169D-09
   28.050000    5.4110812634256D-07  6.125D-09
   28.100000    5.3726787186595D-07  6.081D-09
   28.150000    5.3346162085245D-07  6.038D-09
   28.200000    5.2968901269872D-07  5.996D-09
   28.250000    5.2594969125889D-07  5.953D-09
   28.300000    5.2224330476775D-07  5.911D-09
   28.350000    5.1856950579735D-07  5.870D-09
   28.400000    5.1492795118233D-07  5.829D-09
   28.450000    5.1131830196606D-07  5.788D-09
   28.500000    5.0774022334258D-07  5.747D-09
   28.550000    5.0419338459240D-07  5.707D-09
   28.600000    5.0067745903478D-07  5.667D-09
   28.650000    4.9719212396350D-07  5.628D-09
   28.700000    4.9373706059920D-07  5.589D-09
   28.750000    4.9031195402512D-07  5.550D-09
   28.800000    4.8691649314562D-07  5.512D-09
   28.850000    4.8355037061988D-07  5.474D-09
   28.900000    4.8021328282252D-07  5.436D-09
   28.950000    4.7690492978347D-07  5.398D-09
   29.000000    4.7362501514651D-07  5.361D-09
   29.050000    4.7037324610918D-07  5.324D-09
   29.100000    4.6714933338337D-07  5.288D-09
   29.150000    4.6395299113935D-07  5.252D-09
   29.200000    4.6078393696640D-07  5.216D-09
   29.250000    4.5764189182099D-07  5.180D-09
   29.300000    4.5452657998112D-07  5.145D-09
   29.350000    4.5143772900284D-07  5.110D-09
   29.400000    4.4837506967880D-07  5.075D-09
   29.450000    4.4533833598841D-07  5.041D-09
   29.500000    4.4232726505438D-07  5.007D-09
   29.550000    4.3934159710954D-07  4.973D-09
   29.600000    4.3638107544289D-07  4.940D-09
   29.650000    4.3344544636855D-07  4.906D-09
   29.700000    4.3053445918010D-07  4.873D-09
   29.750000    4.2764786611125D-07  4.841D-09
   29.800000    4.2478542229222D-07  4.808D-09
   29.850000    4.2194688572493D-07  4.776D-09
   29.900000    4.1913201722698D-07  4.744D-09
   29.950000    4.1634058040884D-07  4.713D-09
   30.000000    4.1357234162618D-07  4.681D-09
   30.050000    4.1082706994665D-07  4.650D-09
   30.100000    4.0810453712093D-07  4.620D-09
   30.150000    4.0540451753494D-07  4.589D-09
   30.200000    4.0272678818919D-07  4.559D-09
   30.250000    4.0007112864688D-07  4.529D-09
   30.300000    3.9743732101526D-07  4.499D-09
   30.350000    3.9482514991038D-07  4.469D-09
   30.400000    3.9223440241354D-07  4.440D-09
   30.450000    3.8966486804845D-07  4.411D-09
   30.500000    3.8711633875018D-07  4.382D-09
   30.550000    3.8458860882778D-07  4.353D-09
   30.600000    3.8208147493526D-07  4.325D-09
   30.650000    3.7959473604467D-07  4.297D-09
   30.700000    3.7712819340869D-07  4.269D-09
   30.750000    3.7468165053997D-07  4.241D-09
   30.800000    3.7225491317789D-07  4.214D-09
   30.850000    3.6984778925334D-07  4.187D-09
   30.900000    3.6746008887209D-07  4.160D-09
   30.950000    3.6509162427752D-07  4.133D-09
   31.000000    3.6274220983396D-07  4.106D-09
   31.050000    3.6041166198110D-07  4.080D-09
   31.100000    3.5809979922566D-07  4.054D-09
   31.150000    3.5580644210826D-07  4.028D-09
   31.200000    3.5353141317226D-07  4.002D-09
   31.250000    3.5127453694718D-07  3.976D-09
   31.300000    3.4903563991757D-07  3.951D-09
   31.350000    3.4681455049818D-07  3.926D-09
   31.400000    3.4461109901314D-07  3.901D-09
   31.450000    3.4242511766697D-07  3.876D-09
   31.500000    3.4025644052796D-07  3.852D-09
   31.550000    3.3810490349501D-07  3.827D-09
   31.600000    3.3597034428101D-07  3.803D-09
   31.650000    3.3385260239210D-07  3.779D-09
   31.700000    3.3175151909240D-07  3.755D-09
   31.750000    3.2966693740198D-07  3.732D-09
   31.800000    3.2759870205737D-07  3.708D-09
   31.850000    3.2554665949712D-07  3.685D-09
   31.900000    3.2351065784097D-07  3.662D-09
   31.950000    3.2149054686921D-07  3.639D-09
   32.000000    3.1948617799352D-07  3.617D-09
   32.050000    3.1749740425499D-07  3.594D-09
   32.100000    3.1552408028673D-07  3.572D-09
   32.150000    3.1356606229728D-07  3.550D-09
   32.200000    3.1162320806026D-07  3.528D-09
   32.250000    3.0969537688321D-07  3.506D-09
   32.300000    3.0778242959519D-07  3.484D-09
   32.350000    3.0588422853013D-07  3.463D-09