
variables = "r", "UA(r)", "Uncertainty"
zone T = "State 1 UA(r)  5412rref2_74RRRfulls"

    0.600000   -1.0270208516961D+01  5.857D+00
    0.650000   -9.9769432846469D+00  5.656D+00
    0.700000   -9.6179062084809D+00  5.412D+00
    0.750000   -9.1890070022402D+00  5.123D+00
    0.800000   -8.6886126399907D+00  4.790D+00
    0.850000   -8.1181654292211D+00  4.416D+00
    0.900000   -7.4826582286220D+00  4.007D+00
    0.950000   -6.7908642978906D+00  3.573D+00
    1.000000   -6.0552264886902D+00  3.126D+00
    1.050000   -5.2913404912393D+00  2.681D+00
    1.100000   -4.5170210506029D+00  2.255D+00
    1.150000   -3.7510131707318D+00  1.863D+00
    1.200000   -3.0114891562552D+00  1.521D+00
    1.250000   -2.3145372421290D+00  1.239D+00
    1.300000   -1.6728770474954D+00  1.018D+00
    1.350000   -1.0950151622001D+00  8.513D-01
    1.400000   -5.8497797329498D-01  7.234D-01
    1.450000   -1.4264312258470D-01  6.172D-01
    1.500000    2.3543388716727D-01  5.199D-01
    1.550000    5.5489892393572D-01  4.256D-01
    1.600000    8.2242654455024D-01  3.347D-01
    1.650000    1.0447133266377D+00  2.515D-01
    1.700000    1.2277790194333D+00  1.829D-01
    1.750000    1.3766194099790D+00  1.373D-01
    1.800000    1.4951677614228D+00  1.199D-01
    1.850000    1.5864679019185D+00  1.233D-01
    1.900000    1.6529476062797D+00  1.331D-01
    1.950000    1.6966977622349D+00  1.404D-01
    2.000000    1.7196959533530D+00  1.429D-01
    2.050000    1.7239480531273D+00  1.408D-01
    2.100000    1.7115487662436D+00  1.356D-01
    2.150000    1.6846782543564D+00  1.288D-01
    2.200000    1.6455579500653D+00  1.218D-01
    2.250000    1.5963874743869D+00  1.157D-01
    2.300000    1.5392796315267D+00  1.110D-01
    2.350000    1.4762044449698D+00  1.077D-01
    2.400000    1.4089477741707D+00  1.057D-01
    2.450000    1.3390859552706D+00  1.044D-01
    2.500000    1.2679752657945D+00  1.035D-01
    2.550000    1.1967536121182D+00  1.027D-01
    2.600000    1.1263513474728D+00  1.017D-01
    2.650000    1.0575082190539D+00  1.003D-01
    2.700000    9.9079384913694D-01  9.847D-02
    2.750000    9.2662968791286D-01  9.625D-02
    2.800000    8.6531091587000D-01  9.366D-02
    2.850000    8.0702725572009D-01  9.074D-02
    2.900000    7.5188205003605D-01  8.756D-02
    2.950000    6.9990926592654D-01  8.417D-02
    3.000000    6.5108830986867D-01  8.065D-02
    3.050000    6.0535668756803D-01  7.705D-02
    3.100000    5.6262064013629D-01  7.342D-02
    3.150000    5.2276394275582D-01  6.979D-02
    3.200000    4.8565507712269D-01  6.622D-02
    3.250000    4.5115299378893D-01  6.272D-02
    3.300000    4.1911167231509D-01  5.931D-02
    3.350000    3.8938367122736D-01  5.601D-02
    3.400000    3.6182283992533D-01  5.285D-02
    3.450000    3.3628634346647D-01  4.981D-02
    3.500000    3.1263613021841D-01  4.691D-02
    3.550000    2.9073995271729D-01  4.415D-02
    3.600000    2.7047203424143D-01  4.154D-02
    3.650000    2.5171345783110D-01  3.906D-02
    3.700000    2.3435234078811D-01  3.672D-02
    3.750000    2.1828384597525D-01  3.451D-02
    3.800000    2.0341007134444D-01  3.243D-02
    3.850000    1.8963985085524D-01  3.047D-02
    3.900000    1.7688849309941D-01  2.863D-02
    3.950000    1.6507747832224D-01  2.690D-02
    4.000000    1.5413412994423D-01  2.527D-02
    4.050000    1.4399127297113D-01  2.375D-02
    4.100000    1.3458688869034D-01  2.233D-02
    4.150000    1.2586377266230D-01  2.099D-02
    4.200000    1.1776920111765D-01  1.974D-02
    4.250000    1.1025460937575D-01  1.856D-02
    4.300000    1.0327528473061D-01  1.746D-02
    4.350000    9.6790075343705D-02  1.643D-02
    4.400000    9.0761115988009D-02  1.547D-02
    4.450000    8.5153570961386D-02  1.457D-02
    4.500000    7.9935394094554D-02  1.372D-02
    4.550000    7.5077105492528D-02  1.293D-02
    4.600000    7.0551584444757D-02  1.219D-02
    4.650000    6.6333877800295D-02  1.149D-02
    4.700000    6.2401023015582D-02  1.084D-02
    4.750000    5.8731885031886D-02  1.023D-02
    4.800000    5.5307006117875D-02  9.657D-03
    4.850000    5.2108467812900D-02  9.120D-03
    4.900000    4.9119764122410D-02  8.616D-03
    4.950000    4.6325685143964D-02  8.143D-03
    5.000000    4.3712210337185D-02  7.699D-03
    5.050000    4.1266410690724D-02  7.282D-03
    5.100000    3.8976359082038D-02  6.890D-03
    5.150000    3.6831048169757D-02  6.522D-03
    5.200000    3.4820315202598D-02  6.176D-03
    5.250000    3.2934773172224D-02  5.851D-03
    5.300000    3.1165747779548D-02  5.545D-03
    5.350000    2.9505219724366D-02  5.257D-03
    5.400000    2.7945771866553D-02  4.985D-03
    5.450000    2.6480540843201D-02  4.730D-03
    5.500000    2.5103172759990D-02  4.490D-03
    5.550000    2.3807782606715D-02  4.263D-03
    5.600000    2.2588917076237D-02  4.049D-03
    5.650000    2.1441520493400D-02  3.848D-03
    5.700000    2.0360903585475D-02  3.657D-03
    5.750000    1.9342714848930D-02  3.478D-03
    5.800000    1.8382914288525D-02  3.308D-03
    5.850000    1.7477749324242D-02  3.148D-03
    5.900000    1.6623732679474D-02  2.997D-03
    5.950000    1.5817622080216D-02  2.854D-03
    6.000000    1.5056401609971D-02  2.719D-03
    6.050000    1.4337264578753D-02  2.591D-03
    6.100000    1.3657597776972D-02  2.470D-03
    6.150000    1.3014966996450D-02  2.355D-03
    6.200000    1.2407103711077D-02  2.247D-03
    6.250000    1.1831892819121D-02  2.144D-03
    6.300000    1.1287361357788D-02  2.047D-03
    6.350000    1.0771668108471D-02  1.954D-03
    6.400000    1.0283094018234D-02  1.867D-03
    6.450000    9.8200333695933D-03  1.784D-03
    6.500000    9.3809856365930D-03  1.705D-03
    6.550000    8.9645479704849D-03  1.630D-03
    6.600000    8.5694082633207D-03  1.559D-03
    6.650000    8.1943387421344D-03  1.491D-03
    6.700000    7.8381900505326D-03  1.427D-03
    6.750000    7.4998857781682D-03  1.366D-03
    6.800000    7.1784174019701D-03  1.308D-03
    6.850000    6.8728396060512D-03  1.253D-03
    6.900000    6.5822659500462D-03  1.200D-03
    6.950000    6.3058648581753D-03  1.150D-03
    7.000000    6.0428559036365D-03  1.103D-03
    7.050000    5.7925063650941D-03  1.058D-03
    7.100000    5.5541280339259D-03  1.014D-03
    7.150000    5.3270742526927D-03  9.732D-04
    7.200000    5.1107371669231D-03  9.340D-04
    7.250000    4.9045451736807D-03  8.966D-04
    7.300000    4.7079605518928D-03  8.609D-04
    7.350000    4.5204772605152D-03  8.268D-04
    7.400000    4.3416188917740D-03  7.944D-04
    7.450000    4.1709367677884D-03  7.633D-04
    7.500000    4.0080081697750D-03  7.337D-04
    7.550000    3.8524346899243D-03  7.054D-04
    7.600000    3.7038406968218D-03  6.783D-04
    7.650000    3.5618719059929D-03  6.525D-04
    7.700000    3.4261940478592D-03  6.278D-04
    7.750000    3.2964916259345D-03  6.041D-04
    7.800000    3.1724667587160D-03  5.815D-04
    7.850000    3.0538380991879D-03  5.599D-04
    7.900000    2.9403398263343D-03  5.392D-04
    7.950000    2.8317207035073D-03  5.194D-04
    8.000000    2.7277431988797D-03  5.004D-04
    8.050000    2.6281826635614D-03  4.822D-04
    8.100000    2.5328265633183D-03  4.648D-04
    8.150000    2.4414737601234D-03  4.481D-04
    8.200000    2.3539338400587D-03  4.321D-04
    8.250000    2.2700264843419D-03  4.168D-04
    8.300000    2.1895808804994D-03  4.021D-04
    8.350000    2.1124351709137D-03  3.880D-04
    8.400000    2.0384359362046D-03  3.744D-04
    8.450000    1.9674377110433D-03  3.614D-04
    8.500000    1.8993025302314D-03  3.490D-04
    8.550000    1.8338995029864D-03  3.370D-04
    8.600000    1.7711044135458D-03  3.255D-04
    8.650000    1.7107993463279D-03  3.145D-04
    8.700000    1.6528723340433D-03  3.038D-04
    8.750000    1.5972170271988D-03  2.936D-04
    8.800000    1.5437323836305D-03  2.838D-04
    8.850000    1.4923223767291D-03  2.744D-04
    8.900000    1.4428957211500D-03  2.654D-04
    8.950000    1.3953656148771D-03  2.566D-04
    9.000000    1.3496494965874D-03  2.483D-04
    9.050000    1.3056688173293D-03  2.402D-04
    9.100000    1.2633488256087D-03  2.324D-04
    9.150000    1.2226183650318D-03  2.250D-04
    9.200000    1.1834096837056D-03  2.178D-04
    9.250000    1.1456582546660D-03  2.108D-04
    9.300000    1.1093026066312D-03  2.042D-04
    9.350000    1.0742841644525D-03  1.977D-04
    9.400000    1.0405470986553D-03  1.915D-04
    9.450000    1.0080381835033D-03  1.856D-04
    9.500000    9.7670666307999D-04  1.798D-04
    9.550000    9.4650412487720D-04  1.743D-04
    9.600000    9.1738438045199D-04  1.689D-04
    9.650000    8.8930335272155D-04  1.638D-04
    9.700000    8.6221896948278D-04  1.588D-04
    9.750000    8.3609106280617D-04  1.540D-04
    9.800000    8.1088127393291D-04  1.494D-04
    9.850000    7.8655296336339D-04  1.449D-04
    9.900000    7.6307112582513D-04  1.406D-04
    9.950000    7.4040230983258D-04  1.364D-04
   10.000000    7.1851454156736D-04  1.324D-04
   10.050000    6.9737725284267D-04  1.285D-04
   10.100000    6.7696121289619D-04  1.247D-04
   10.150000    6.5723846378361D-04  1.211D-04
   10.200000    6.3818225922127D-04  1.176D-04
   10.250000    6.1976700660353D-04  1.142D-04
   10.300000    6.0196821205835D-04  1.109D-04
   10.350000    5.8476242837559D-04  1.078D-04
   10.400000    5.6812720562412D-04  1.047D-04
   10.450000    5.5204104430885D-04  1.018D-04
   10.500000    5.3648335094095D-04  9.889D-05
   10.550000    5.2143439587885D-04  9.612D-05
   10.600000    5.0687527330497D-04  9.344D-05
   10.650000    4.9278786324109D-04  9.085D-05
   10.700000    4.7915479546216D-04  8.834D-05
   10.750000    4.6595941524218D-04  8.591D-05
   10.800000    4.5318575079250D-04  8.356D-05
   10.850000    4.4081848232747D-04  8.128D-05
   10.900000    4.2884291266627D-04  7.908D-05
   10.950000    4.1724493927996D-04  7.694D-05
   11.000000    4.0601102770715D-04  7.487D-05
   11.050000    3.9512818627524D-04  7.287D-05
   11.100000    3.8458394205024D-04  7.093D-05
   11.150000    3.7436631795019D-04  6.904D-05
   11.200000    3.6446381096742D-04  6.722D-05
   11.250000    3.5486537142527D-04  6.545D-05
   11.300000    3.4556038324711D-04  6.374D-05
   11.350000    3.3653864514212D-04  6.208D-05
   11.400000    3.2779035270784D-04  6.046D-05
   11.450000    3.1930608135376D-04  5.890D-05
   11.500000    3.1107677004272D-04  5.738D-05
   11.550000    3.0309370579596D-04  5.591D-05
   11.600000    2.9534850891079D-04  5.449D-05
   11.650000    2.8783311886925D-04  5.310D-05
   11.700000    2.8053978090311D-04  5.176D-05
   11.750000    2.7346103317104D-04  5.045D-05
   11.800000    2.6658969452944D-04  4.919D-05
   11.850000    2.5991885285446D-04  4.796D-05
   11.900000    2.5344185390670D-04  4.676D-05
   11.950000    2.4715229069168D-04  4.560D-05
   12.000000    2.4104399330163D-04  4.448D-05
   12.050000    2.3511101921830D-04  4.338D-05
   12.100000    2.2934764404584D-04  4.232D-05
   12.150000    2.2374835265799D-04  4.129D-05
   12.200000    2.1830783073894D-04  4.029D-05
   12.250000    2.1302095670196D-04  3.931D-05
   12.300000    2.0788279395632D-04  3.836D-05
   12.350000    2.0288858351531D-04  3.744D-05
   12.400000    1.9803373694131D-04  3.655D-05
   12.450000    1.9331382957446D-04  3.568D-05
   12.500000    1.8872459407353D-04  3.483D-05
   12.550000    1.8426191423196D-04  3.401D-05
   12.600000    1.7992181905001D-04  3.321D-05
   12.650000    1.7570047708100D-04  3.243D-05
   12.700000    1.7159419099527D-04  3.167D-05
   12.750000    1.6759939239483D-04  3.093D-05
   12.800000    1.6371263683865D-04  3.022D-05
   12.850000    1.5993059908019D-04  2.952D-05
   12.900000    1.5625006850247D-04  2.884D-05
   12.950000    1.5266794475076D-04  2.818D-05
   13.000000    1.4918123353781D-04  2.754D-05
   13.050000    1.4578704264092D-04  2.691D-05
   13.100000    1.4248257803751D-04  2.630D-05
   13.150000    1.3926514022987D-04  2.571D-05
   13.200000    1.3613212070400D-04  2.513D-05
   13.250000    1.3308099853021D-04  2.457D-05
   13.300000    1.3010933712038D-04  2.402D-05
   13.350000    1.2721478109877D-04  2.348D-05
   13.400000    1.2439505330583D-04  2.296D-05
   13.450000    1.2164795193356D-04  2.246D-05
   13.500000    1.1897134775531D-04  2.196D-05
   13.550000    1.1636318148723D-04  2.148D-05
   13.600000    1.1382146124128D-04  2.101D-05
   13.650000    1.1134426008770D-04  2.056D-05
   13.700000    1.0892971370761D-04  2.011D-05
   13.750000    1.0657601814326D-04  1.968D-05
   13.800000    1.0428142763702D-04  1.925D-05
   13.850000    1.0204425255169D-04  1.884D-05
   13.900000    9.9862857373677D-05  1.844D-05
   13.950000    9.7735658797637D-05  1.805D-05
   14.000000    9.5661123876054D-05  1.766D-05
   14.050000    9.3637768251881D-05  1.729D-05
   14.100000    9.1664154456263D-05  1.693D-05
   14.150000    8.9738890257956D-05  1.657D-05
   14.200000    8.7860627101816D-05  1.622D-05
   14.250000    8.6028058584112D-05  1.588D-05
   14.300000    8.4239918993074D-05  1.555D-05
   14.350000    8.2494981913201D-05  1.523D-05
   14.400000    8.0792058869462D-05  1.492D-05
   14.450000    7.9129998024858D-05  1.461D-05
   14.500000    7.7507682943314D-05  1.431D-05
   14.550000    7.5924031367141D-05  1.402D-05
   14.600000    7.4377994077788D-05  1.373D-05
   14.650000    7.2868553762251D-05  1.346D-05
   14.700000    7.1394723952347D-05  1.318D-05
   14.750000    6.9955547981627D-05  1.292D-05
   14.800000    6.8550097991295D-05  1.266D-05
   14.850000    6.7177473968729D-05  1.241D-05
   14.900000    6.5836802826077D-05  1.216D-05
   14.950000    6.4527237505505D-05  1.192D-05
   15.000000    6.3247956117081D-05  1.168D-05
   15.050000    6.1998161116777D-05  1.145D-05
   15.100000    6.0777078506674D-05  1.122D-05
   15.150000    5.9583957061867D-05  1.100D-05
   15.200000    5.8418067593033D-05  1.079D-05
   15.250000    5.7278702226754D-05  1.058D-05
   15.300000    5.6165173720037D-05  1.037D-05
   15.350000    5.5076814789609D-05  1.017D-05
   15.400000    5.4012977475432D-05  9.975D-06
   15.450000    5.2973032516021D-05  9.783D-06
   15.500000    5.1956368755000D-05  9.596D-06
   15.550000    5.0962392563972D-05  9.412D-06
   15.600000    4.9990527280196D-05  9.233D-06
   15.650000    4.9040212678517D-05  9.057D-06
   15.700000    4.8110904447670D-05  8.886D-06
   15.750000    4.7202073687389D-05  8.718D-06
   15.800000    4.6313206432313D-05  8.554D-06
   15.850000    4.5443803177292D-05  8.393D-06
   15.900000    4.4593378432487D-05  8.236D-06
   15.950000    4.3761460285843D-05  8.083D-06
   16.000000    4.2947589980439D-05  7.932D-06
   16.050000    4.2151321512664D-05  7.785D-06
   16.100000    4.1372221239284D-05  7.641D-06
   16.150000    4.0609867490431D-05  7.501D-06
   16.200000    3.9863850215371D-05  7.363D-06
   16.250000    3.9133770617775D-05  7.228D-06
   16.300000    3.8419240820789D-05  7.096D-06
   16.350000    3.7719883530572D-05  6.967D-06
   16.400000    3.7035331722175D-05  6.841D-06
   16.450000    3.6365228320901D-05  6.717D-06
   16.500000    3.5709225916468D-05  6.596D-06
   16.550000    3.5066986459214D-05  6.477D-06
   16.600000    3.4438180993593D-05  6.361D-06
   16.650000    3.3822489378196D-05  6.247D-06
   16.700000    3.3219600028135D-05  6.136D-06
   16.750000    3.2629209660375D-05  6.027D-06
   16.800000    3.2051023049490D-05  5.920D-06
   16.850000    3.1484752792356D-05  5.816D-06
   16.900000    3.0930119072794D-05  5.713D-06
   16.950000    3.0386849447115D-05  5.613D-06
   17.000000    2.9854678623650D-05  5.515D-06
   17.050000    2.9333348257190D-05  5.418D-06
   17.100000    2.8822606746394D-05  5.324D-06
   17.150000    2.8322209040128D-05  5.232D-06
   17.200000    2.7831916445277D-05  5.141D-06
   17.250000    2.7351496449476D-05  5.052D-06
   17.300000    2.6880722539326D-05  4.965D-06
   17.350000    2.6419374030557D-05  4.880D-06
   17.400000    2.5967235902634D-05  4.797D-06
   17.450000    2.5524098636349D-05  4.715D-06
   17.500000    2.5089758057358D-05  4.635D-06
   17.550000    2.4664015185679D-05  4.556D-06
   17.600000    2.4246676092649D-05  4.479D-06
   17.650000    2.3837551754870D-05  4.403D-06
   17.700000    2.3436457915610D-05  4.329D-06
   17.750000    2.3043214958147D-05  4.257D-06
   17.800000    2.2657647768635D-05  4.185D-06
   17.850000    2.2279585613897D-05  4.116D-06
   17.900000    2.1908862025187D-05  4.047D-06
   17.950000    2.1545314671474D-05  3.980D-06
   18.000000    2.1188785255128D-05  3.914D-06
   18.050000    2.0839119383692D-05  3.850D-06
   18.100000    2.0496166486462D-05  3.786D-06
   18.150000    2.0159779695199D-05  3.724D-06
   18.200000    1.9829815742763D-05  3.663D-06
   18.250000    1.9506134873684D-05  3.603D-06
   18.300000    1.9188600741285D-05  3.545D-06
   18.350000    1.8877080316746D-05  3.487D-06
   18.400000    1.8571443804129D-05  3.431D-06
   18.450000    1.8271564546444D-05  3.375D-06
   18.500000    1.7977318948130D-05  3.321D-06
   18.550000    1.7688586391559D-05  3.268D-06
   18.600000    1.7405249150544D-05  3.215D-06
   18.650000    1.7127192326249D-05  3.164D-06
   18.700000    1.6854303759191D-05  3.114D-06
   18.750000    1.6586473966632D-05  3.064D-06
   18.800000    1.6323596066520D-05  3.016D-06
   18.850000    1.6065565707402D-05  2.968D-06
   18.900000    1.5812281008786D-05  2.921D-06
   18.950000    1.5563642491044D-05  2.875D-06
   19.000000    1.5319553014273D-05  2.830D-06
   19.050000    1.5079917718643D-05  2.786D-06
   19.100000    1.4844643958768D-05  2.742D-06
   19.150000    1.4613641257492D-05  2.700D-06
   19.200000    1.4386821238759D-05  2.658D-06
   19.250000    1.4164097579895D-05  2.617D-06
   19.300000    1.3945385959407D-05  2.576D-06
   19.350000    1.3730603998810D-05  2.537D-06
   19.400000    1.3519671220867D-05  2.498D-06
   19.450000    1.3312508995895D-05  2.459D-06
   19.500000    1.3109040497012D-05  2.422D-06
   19.550000    1.2909190652410D-05  2.385D-06
   19.600000    1.2712886106576D-05  2.349D-06
   19.650000    1.2520055166578D-05  2.313D-06
   19.700000    1.2330627770755D-05  2.278D-06
   19.750000    1.2144535440973D-05  2.244D-06
   19.800000    1.1961711243838D-05  2.210D-06
   19.850000    1.1782089757888D-05  2.177D-06
   19.900000    1.1605607024347D-05  2.144D-06
   19.950000    1.1432200524766D-05  2.112D-06
   20.000000    1.1261809133268D-05  2.081D-06
   20.050000    1.1094373088210D-05  2.050D-06
   20.100000    1.0929833956374D-05  2.019D-06
   20.150000    1.0768134603136D-05  1.989D-06
   20.200000    1.0609219153660D-05  1.960D-06
   20.250000    1.0453032976510D-05  1.931D-06
   20.300000    1.0299522631402D-05  1.903D-06
   20.350000    1.0148635861768D-05  1.875D-06
   20.400000    1.0000321548481D-05  1.848D-06
   20.450000    9.8545296964503D-06  1.821D-06
   20.500000    9.7112113958036D-06  1.794D-06
   20.550000    9.5703188069868D-06  1.768D-06
   20.600000    9.4318051219491D-06  1.743D-06
   20.650000    9.2956245507290D-06  1.717D-06
   20.700000    9.1617322916035D-06  1.693D-06
   20.750000    9.0300845072128D-06  1.668D-06
   20.800000    8.9006383036718D-06  1.644D-06
   20.850000    8.7733517066929D-06  1.621D-06
   20.900000    8.6481836392007D-06  1.598D-06
   20.950000    8.5250939034297D-06  1.575D-06
   21.000000    8.4040431555487D-06  1.553D-06
   21.050000    8.2849928877565D-06  1.531D-06
   21.100000    8.1679054073871D-06  1.509D-06
   21.150000    8.0527438219915D-06  1.488D-06
   21.200000    7.9394720154533D-06  1.467D-06
   21.250000    7.8280546300807D-06  1.446D-06
   21.300000    7.7184570546733D-06  1.426D-06
   21.350000    7.6106453976479D-06  1.406D-06
   21.400000    7.5045864810804D-06  1.387D-06
   21.450000    7.4002478153245D-06  1.367D-06
   21.500000    7.2975975885698D-06  1.348D-06
   21.550000    7.1966046489296D-06  1.330D-06
   21.600000    7.0972384895158D-06  1.311D-06
   21.650000    6.9994692305251D-06  1.293D-06
   21.700000    6.9032676132780D-06  1.275D-06
   21.750000    6.8086049793152D-06  1.258D-06
   21.800000    6.7154532554710D-06  1.241D-06
   21.850000    6.6237849449216D-06  1.224D-06
   21.900000    6.5335731152460D-06  1.207D-06
   21.950000    6.4447913775200D-06  1.191D-06
   22.000000    6.3574138848353D-06  1.175D-06
   22.050000    6.2714153098986D-06  1.159D-06
   22.100000    6.1867708420552D-06  1.143D-06
   22.150000    6.1034561678763D-06  1.128D-06
   22.200000    6.0214474681814D-06  1.113D-06
   22.250000    5.9407214001187D-06  1.098D-06
   22.300000    5.8612550882108D-06  1.083D-06
   22.350000    5.7830261168933D-06  1.068D-06
   22.400000    5.7060125185708D-06  1.054D-06
   22.450000    5.6301927616733D-06  1.040D-06
   22.500000    5.5555457431937D-06  1.026D-06
   22.550000    5.4820507797317D-06  1.013D-06
   22.600000    5.4096875970428D-06  9.995D-07
   22.650000    5.3384363240694D-06  9.863D-07
   22.700000    5.2682774720305D-06  9.734D-07
   22.750000    5.1991919463824D-06  9.606D-07
   22.800000    5.1311610199305D-06  9.480D-07
   22.850000    5.0641663373196D-06  9.357D-07
   22.900000    4.9981899000980D-06  9.235D-07
   22.950000    4.9332140592539D-06  9.115D-07
   23.000000    4.8692215092446D-06  8.996D-07
   23.050000    4.8061952835202D-06  8.880D-07
   23.100000    4.7441187410819D-06  8.765D-07
   23.150000    4.6829755634994D-06  8.652D-07
   23.200000    4.6227497474457D-06  8.541D-07
   23.250000    4.5634255972311D-06  8.431D-07
   23.300000    4.5049877188320D-06  8.324D-07
   23.350000    4.4474210124251D-06  8.217D-07
   23.400000    4.3907106694036D-06  8.112D-07
   23.450000    4.3348421604286D-06  8.009D-07
   23.500000    4.2798012354335D-06  7.907D-07
   23.550000    4.2255739131692D-06  7.807D-07
   23.600000    4.1721464797145D-06  7.709D-07
   23.650000    4.1195054795143D-06  7.611D-07
   23.700000    4.0676377109018D-06  7.516D-07
   23.750000    4.0165302201251D-06  7.421D-07
   23.800000    3.9661702983630D-06  7.328D-07
   23.850000    3.9165454772456D-06  7.236D-07
   23.900000    3.8676435169047D-06  7.146D-07
   23.950000    3.8194524104593D-06  7.057D-07
   24.000000    3.7719603735601D-06  6.969D-07
   24.050000    3.7251558399097D-06  6.883D-07
   24.100000    3.6790274612656D-06  6.798D-07
   24.150000    3.6335640954902D-06  6.714D-07
   24.200000    3.5887548095414D-06  6.631D-07
   24.250000    3.5445888705106D-06  6.549D-07
   24.300000    3.5010557456256D-06  6.469D-07
   24.350000    3.4581450932875D-06  6.389D-07
   24.400000    3.4158467630736D-06  6.311D-07
   24.450000    3.3741507882690D-06  6.234D-07
   24.500000    3.3330473858687D-06  6.158D-07
   24.550000    3.2925269520975D-06  6.083D-07
   24.600000    3.2525800579294D-06  6.010D-07
   24.650000    3.2131974431135D-06  5.937D-07
   24.700000    3.1743700161755D-06  5.865D-07
   24.750000    3.1360888529258D-06  5.794D-07
   24.800000    3.0983451845082D-06  5.725D-07
   24.850000    3.0611304078605D-06  5.656D-07
   24.900000    3.0244360662924D-06  5.588D-07
   24.950000    2.9882538614406D-06  5.521D-07
   25.000000    2.9525756398228D-06  5.455D-07
   25.050000    2.9173933943336D-06  5.390D-07
   25.100000    2.8826992627519D-06  5.326D-07
   25.150000    2.8484855187772D-06  5.263D-07
   25.200000    2.8147445780083D-06  5.201D-07
   25.250000    2.7814689874848D-06  5.139D-07
   25.300000    2.7486514271833D-06  5.079D-07
   25.350000    2.7162847055359D-06  5.019D-07
   25.400000    2.6843617549488D-06  4.960D-07
   25.450000    2.6528756422636D-06  4.902D-07
   25.500000    2.6218195463451D-06  4.844D-07
   25.550000    2.5911867685417D-06  4.788D-07
   25.600000    2.5609707282049D-06  4.732D-07
   25.650000    2.5311649567124D-06  4.677D-07
   25.700000    2.5017631019532D-06  4.622D-07
   25.750000    2.4727589208564D-06  4.569D-07
   25.800000    2.4441462764049D-06  4.516D-07
   25.850000    2.4159191406241D-06  4.464D-07
   25.900000    2.3880715901007D-06  4.412D-07
   25.950000    2.3605978015009D-06  4.362D-07
   26.000000    2.3334920530656D-06  4.312D-07
   26.050000    2.3067487201285D-06  4.262D-07
   26.100000    2.2803622766115D-06  4.213D-07
   26.150000    2.2543272905429D-06  4.165D-07
   26.200000    2.2286384195753D-06  4.118D-07
   26.250000    2.2032904184579D-06  4.071D-07
   26.300000    2.1782781255887D-06  4.025D-07
   26.350000    2.1535964704874D-06  3.979D-07
   26.400000    2.1292404678183D-06  3.934D-07
   26.450000    2.1052052144029D-06  3.890D-07
   26.500000    2.0814858951978D-06  3.846D-07
   26.550000    2.0580777698471D-06  3.803D-07
   26.600000    2.0349761831425D-06  3.760D-07
   26.650000    2.0121765560591D-06  3.718D-07
   26.700000    1.9896743857555D-06  3.676D-07
   26.750000    1.9674652455746D-06  3.635D-07
   26.800000    1.9455447820560D-06  3.595D-07
   26.850000    1.9239087164304D-06  3.555D-07
   26.900000    1.9025528371493D-06  3.515D-07
   26.950000    1.8814730088510D-06  3.476D-07
   27.000000    1.8606651574184D-06  3.438D-07
   27.050000    1.8401252834281D-06  3.400D-07
   27.100000    1.8198494472081D-06  3.363D-07
   27.150000    1.7998337778044D-06  3.326D-07
   27.200000    1.7800744670036D-06  3.289D-07
   27.250000    1.7605677693343D-06  3.253D-07
   27.300000    1.7413100005725D-06  3.217D-07
   27.350000    1.7222975377428D-06  3.182D-07
   27.400000    1.7035268161296D-06  3.148D-07
   27.450000    1.6849943292783D-06  3.113D-07
   27.500000    1.6666966260064D-06  3.080D-07
   27.550000    1.6486303163816D-06  3.046D-07
   27.600000    1.6307920597677D-06  3.013D-07
   27.650000    1.6131785737909D-06  2.981D-07
   27.700000    1.5957866268685D-06  2.949D-07
   27.750000    1.5786130397039D-06  2.917D-07
   27.800000    1.5616546852864D-06  2.885D-07
   27.850000    1.5449084859038D-06  2.855D-07
   27.900000    1.5283714146364D-06  2.824D-07
   27.950000    1.5120404923689D-06  2.794D-07
   28.000000    1.4959127862967D-06  2.764D-07
   28.050000    1.4799854114201D-06  2.735D-07
   28.100000    1.4642555305452D-06  2.706D-07
   28.150000    1.4487203498006D-06  2.677D-07
   28.200000    1.4333771171439D-06  2.648D-07
   28.250000    1.4182231298336D-06  2.620D-07
   28.300000    1.4032557239686D-06  2.593D-07
   28.350000    1.3884722789723D-06  2.566D-07
   28.400000    1.3738702160978D-06  2.539D-07
   28.450000    1.3594469939457D-06  2.512D-07
   28.500000    1.3452001174300D-06  2.486D-07
   28.550000    1.3311271228354D-06  2.460D-07
   28.600000    1.3172255927605D-06  2.434D-07
   28.650000    1.3034931411752D-06  2.409D-07
   28.700000    1.2899274223863D-06  2.383D-07
   28.750000    1.2765261280497D-06  2.359D-07
   28.800000    1.2632869826874D-06  2.334D-07
   28.850000    1.2502077496648D-06  2.310D-07
   28.900000    1.2372862252141D-06  2.286D-07
   28.950000    1.2245202399283D-06  2.263D-07
   29.000000    1.2119076557732D-06  2.239D-07
   29.050000    1.1994463720648D-06  2.216D-07
   29.100000    1.1871343179975D-06  2.194D-07
   29.150000    1.1749694526449D-06  2.171D-07
   29.200000    1.1629497709369D-06  2.149D-07
   29.250000    1.1510732946938D-06  2.127D-07
   29.300000    1.1393380771099D-06  2.105D-07
   29.350000    1.1277422012591D-06  2.084D-07
   29.400000    1.1162837800949D-06  2.063D-07
   29.450000    1.1049609564509D-06  2.042D-07
   29.500000    1.0937718955691D-06  2.021D-07
   29.550000    1.0827147970547D-06  2.001D-07
   29.600000    1.0717878859103D-06  1.980D-07
   29.650000    1.0609894110420D-06  1.960D-07
   29.700000    1.0503176527305D-06  1.941D-07
   29.750000    1.0397709121718D-06  1.921D-07
   29.800000    1.0293475189482D-06  1.902D-07
   29.850000    1.0190458280404D-06  1.883D-07
   29.900000    1.0088642168385D-06  1.864D-07
   29.950000    9.9880108962549D-07  1.846D-07
   30.000000    9.8885487309400D-07  1.827D-07
   30.050000    9.7902401634681D-07  1.809D-07
   30.100000    9.6930699537967D-07  1.791D-07
   30.150000    9.5970230262131D-07  1.773D-07
   30.200000    9.5020846038232D-07  1.756D-07
   30.250000    9.4082400591216D-07  1.738D-07
   30.300000    9.3154750185942D-07  1.721D-07
   30.350000    9.2237753328333D-07  1.704D-07
   30.400000    9.1331270167659D-07  1.688D-07
   30.450000    9.0435163393131D-07  1.671D-07
   30.500000    8.9549297337330D-07  1.655D-07
   30.550000    8.8673538424502D-07  1.638D-07
   30.600000    8.7807755320003D-07  1.622D-07
   30.650000    8.6951818033719D-07  1.607D-07
   30.700000    8.6105599115521D-07  1.591D-07
   30.750000    8.5268972459831D-07  1.576D-07
   30.800000    8.4441814202207D-07  1.560D-07
   30.850000    8.3624001822773D-07  1.545D-07
   30.900000    8.2815415042808D-07  1.530D-07
   30.950000    8.2015935077598D-07  1.515D-07
   31.000000    8.1225444785878D-07  1.501D-07
   31.050000    8.0443828968696D-07  1.486D-07
   31.100000    7.9670973921130D-07  1.472D-07
   31.150000    7.8906767432295D-07  1.458D-07
   31.200000    7.8151099233640D-07  1.444D-07
   31.250000    7.7403860550661D-07  1.430D-07
   31.300000    7.6664943953482D-07  1.417D-07
   31.350000    7.5934243655715D-07  1.403D-07
   31.400000    7.5211655663901D-07  1.390D-07
   31.450000    7.4497076880931D-07  1.377D-07
   31.500000    7.3790406152065D-07  1.363D-07
   31.550000    7.3091543667217D-07  1.351D-07
   31.600000    7.2400390960957D-07  1.338D-07
   31.650000    7.1716850912517D-07  1.325D-07
   31.700000    7.1040827895230D-07  1.313D-07
   31.750000    7.0372227627099D-07  1.300D-07
   31.800000    6.9710957021377D-07  1.288D-07
   31.850000    6.9056924485425D-07  1.276D-07
   31.900000    6.8410039621865D-07  1.264D-07
   31.950000    6.7770213079144D-07  1.252D-07
   32.000000    6.7137357448132D-07  1.241D-07
   32.050000    6.6511385618377D-07  1.229D-07
   32.100000    6.5892212272427D-07  1.218D-07
   32.150000    6.5279753138676D-07  1.206D-07
   32.200000    6.4673925290230D-07  1.195D-07
   32.250000    6.4074646547184D-07  1.184D-07
   32.300000    6.3481836223785D-07  1.173D-07
   32.350000    6.2895414829574D-07  1.162D-07