
variables = "r", "B(r) ", "Uncertainty"
zone T = "State 1 B(r)   5412rref2_74RRRfulls"

    0.002500    2.9490001998296D-01     0.0
    0.007500    2.9490001982653D-01     0.0
    0.012500    2.9490001876416D-01     0.0
    0.017500    2.9490001530055D-01     0.0
    0.022500    2.9490000719888D-01     0.0
    0.027500    2.9489999148506D-01     0.0
    0.032500    2.9489996445194D-01     0.0
    0.037500    2.9489992166364D-01     0.0
    0.042500    2.9489985795974D-01     0.0
    0.047500    2.9489976745960D-01     0.0
    0.052500    2.9489964356657D-01     0.0
    0.057500    2.9489947897232D-01     0.0
    0.062500    2.9489926566106D-01     0.0
    0.067500    2.9489899491392D-01     0.0
    0.072500    2.9489865731314D-01     0.0
    0.077500    2.9489824274648D-01     0.0
    0.082500    2.9489774041150D-01     0.0
    0.087500    2.9489713881991D-01     0.0
    0.092500    2.9489642580197D-01     0.0
    0.097500    2.9489558851086D-01     0.0
    0.102500    2.9489461342710D-01     0.0
    0.107500    2.9489348636300D-01     0.0
    0.112500    2.9489219246714D-01     0.0
    0.117500    2.9489071622891D-01     0.0
    0.122500    2.9488904148301D-01     0.0
    0.127500    2.9488715141412D-01     0.0
    0.132500    2.9488502856148D-01     0.0
    0.137500    2.9488265482366D-01     0.0
    0.142500    2.9488001146323D-01     0.0
    0.147500    2.9487707911166D-01     0.0
    0.152500    2.9487383777413D-01     0.0
    0.157500    2.9487026683451D-01     0.0
    0.162500    2.9486634506040D-01     0.0
    0.167500    2.9486205060821D-01     0.0
    0.172500    2.9485736102832D-01     0.0
    0.177500    2.9485225327044D-01     0.0
    0.182500    2.9484670368889D-01     0.0
    0.187500    2.9484068804813D-01     0.0
    0.192500    2.9483418152836D-01     0.0
    0.197500    2.9482715873116D-01     0.0
    0.202500    2.9481959368538D-01     0.0
    0.207500    2.9481145985299D-01     0.0
    0.212500    2.9480273013527D-01     0.0
    0.217500    2.9479337687893D-01     0.0
    0.222500    2.9478337188255D-01     0.0
    0.227500    2.9477268640305D-01     0.0
    0.232500    2.9476129116238D-01     0.0
    0.237500    2.9474915635437D-01     0.0
    0.242500    2.9473625165177D-01     0.0
    0.247500    2.9472254621345D-01     0.0
    0.252500    2.9470800869176D-01     0.0
    0.257500    2.9469260724018D-01     0.0
    0.262500    2.9467630952111D-01     0.0
    0.267500    2.9465908271386D-01     0.0
    0.272500    2.9464089352292D-01     0.0
    0.277500    2.9462170818642D-01     0.0
    0.282500    2.9460149248486D-01     0.0
    0.287500    2.9458021175005D-01     0.0
    0.292500    2.9455783087433D-01     0.0
    0.297500    2.9453431432005D-01     0.0
    0.302500    2.9450962612935D-01     0.0
    0.307500    2.9448372993418D-01     0.0
    0.312500    2.9445658896663D-01     0.0
    0.317500    2.9442816606957D-01     0.0
    0.322500    2.9439842370757D-01     0.0
    0.327500    2.9436732397822D-01     0.0
    0.332500    2.9433482862362D-01     0.0
    0.337500    2.9430089904240D-01     0.0
    0.342500    2.9426549630191D-01     0.0
    0.347500    2.9422858115092D-01     0.0
    0.352500    2.9419011403253D-01     0.0
    0.357500    2.9415005509758D-01     0.0
    0.362500    2.9410836421837D-01     0.0
    0.367500    2.9406500100280D-01     0.0
    0.372500    2.9401992480887D-01     0.0
    0.377500    2.9397309475968D-01     0.0
    0.382500    2.9392446975869D-01     0.0
    0.387500    2.9387400850559D-01     0.0
    0.392500    2.9382166951244D-01     0.0
    0.397500    2.9376741112034D-01     0.0
    0.402500    2.9371119151656D-01     0.0
    0.407500    2.9365296875205D-01     0.0
    0.412500    2.9359270075949D-01     0.0
    0.417500    2.9353034537178D-01     0.0
    0.422500    2.9346586034101D-01     0.0
    0.427500    2.9339920335789D-01     0.0
    0.432500    2.9333033207177D-01     0.0
    0.437500    2.9325920411100D-01     0.0
    0.442500    2.9318577710399D-01     0.0
    0.447500    2.9311000870060D-01     0.0
    0.452500    2.9303185659413D-01     0.0
    0.457500    2.9295127854388D-01     0.0
    0.462500    2.9286823239816D-01     0.0
    0.467500    2.9278267611782D-01     0.0
    0.472500    2.9269456780041D-01     0.0
    0.477500    2.9260386570476D-01     0.0
    0.482500    2.9251052827624D-01     0.0
    0.487500    2.9241451417240D-01     0.0
    0.492500    2.9231578228929D-01     0.0
    0.497500    2.9221429178827D-01     0.0
    0.502500    2.9211000212339D-01     0.0
    0.507500    2.9200287306927D-01     0.0
    0.512500    2.9189286474961D-01     0.0
    0.517500    2.9177993766616D-01     0.0
    0.522500    2.9166405272829D-01     0.0
    0.527500    2.9154517128309D-01     0.0
    0.532500    2.9142325514605D-01     0.0
    0.537500    2.9129826663214D-01     0.0
    0.542500    2.9117016858760D-01     0.0
    0.547500    2.9103892442215D-01     0.0
    0.552500    2.9090449814172D-01     0.0
    0.557500    2.9076685438175D-01     0.0
    0.562500    2.9062595844091D-01     0.0
    0.567500    2.9048177631543D-01     0.0
    0.572500    2.9033427473380D-01     0.0
    0.577500    2.9018342119200D-01     0.0
    0.582500    2.9002918398923D-01     0.0
    0.587500    2.8987153226401D-01     0.0
    0.592500    2.8971043603077D-01     0.0
    0.597500    2.8954586621688D-01     0.0
    0.600000    2.8946226989080D-01  7.799D-03
    0.650000    2.8760172078033D-01  7.674D-03
    0.700000    2.8536933979117D-01  7.520D-03
    0.750000    2.8275805521904D-01  7.333D-03
    0.800000    2.7977885843321D-01  7.112D-03
    0.850000    2.7646454337969D-01  6.854D-03
    0.900000    2.7287271850865D-01  6.559D-03
    0.950000    2.6908758020233D-01  6.228D-03
    1.000000    2.6521995585453D-01  5.862D-03
    1.050000    2.6140524492981D-01  5.466D-03
    1.100000    2.5779912111661D-01  5.044D-03
    1.150000    2.5457119600906D-01  4.602D-03
    1.200000    2.5189723827870D-01  4.147D-03
    1.250000    2.4995091094911D-01  3.688D-03
    1.300000    2.4889622986882D-01  3.234D-03
    1.350000    2.4888196043543D-01  2.792D-03
    1.400000    2.5003890075526D-01  2.371D-03
    1.450000    2.5248046843150D-01  1.978D-03
    1.500000    2.5630632836643D-01  1.619D-03
    1.550000    2.6160815726164D-01  1.299D-03
    1.600000    2.6847624019355D-01  1.020D-03
    1.650000    2.7700557537032D-01  7.830D-04
    1.700000    2.8730053168454D-01  5.866D-04
    1.750000    2.9947771389126D-01  4.286D-04
    1.800000    3.1366729437602D-01  3.050D-04
    1.850000    3.3001342734003D-01  2.113D-04
    1.900000    3.4867435107867D-01  1.425D-04
    1.950000    3.6982246591780D-01  9.376D-05
    2.000000    3.9364424829687D-01  6.055D-05
    2.050000    4.2033954621993D-01  3.913D-05
    2.100000    4.5011971269377D-01  2.648D-05
    2.150000    4.8320412552248D-01  2.002D-05
    2.200000    5.1981476227274D-01  1.726D-05
    2.250000    5.6016852229908D-01  1.628D-05
    2.300000    6.0446692769662D-01  1.604D-05
    2.350000    6.5288285949280D-01  1.621D-05
    2.400000    7.0554430753137D-01  1.667D-05
    2.450000    7.6251582795506D-01  1.736D-05
    2.500000    8.2377937733334D-01  1.824D-05
    2.550000    8.8921708332333D-01  1.922D-05
    2.600000    9.5859891215280D-01  2.027D-05
    2.650000    1.0315778327891D+00  2.134D-05
    2.700000    1.1076939620796D+00  2.242D-05
    2.750000    1.1863875971237D+00  2.349D-05
    2.800000    1.2670194624926D+00  2.451D-05
    2.850000    1.3488953689246D+00  2.547D-05
    2.900000    1.4312920708906D+00  2.635D-05
    2.950000    1.5134814480607D+00  2.713D-05
    3.000000    1.5947510232745D+00  2.781D-05
    3.050000    1.6744199475421D+00  2.837D-05
    3.100000    1.7518506092718D+00  2.880D-05
    3.150000    1.8264567316391D+00  2.912D-05
    3.200000    1.8977091165662D+00  2.936D-05
    3.250000    1.9651401123303D+00  2.963D-05
    3.300000    2.0283475459046D+00  3.004D-05
    3.350000    2.0869984229857D+00  3.068D-05
    3.400000    2.1408322941510D+00  3.155D-05
    3.450000    2.1896639055965D+00  3.258D-05
    3.500000    2.2333846348080D+00  3.370D-05
    3.550000    2.2719622463684D+00  3.494D-05
    3.600000    2.3054386513886D+00  3.651D-05
    3.650000    2.3339255632370D+00  3.883D-05
    3.700000    2.3575981614764D+00  4.243D-05
    3.750000    2.3766870654226D+00  4.768D-05
    3.800000    2.3914690540342D+00  5.465D-05
    3.850000    2.4022570404279D+00  6.314D-05
    3.900000    2.4093898198714D+00  7.271D-05
    3.950000    2.4132220703588D+00  8.290D-05
    4.000000    2.4141150095741D+00  9.329D-05
    4.050000    2.4124280166051D+00  1.035D-04
    4.100000    2.4085114249437D+00  1.134D-04
    4.150000    2.4027005959420D+00  1.230D-04
    4.200000    2.3953112964146D+00  1.324D-04
    4.250000    2.3866363347365D+00  1.419D-04
    4.300000    2.3769433580928D+00  1.520D-04
    4.350000    2.3664736790088D+00  1.633D-04
    4.400000    2.3554419800661D+00  1.763D-04
    4.450000    2.3440367392181D+00  1.915D-04
    4.500000    2.3324212214825D+00  2.092D-04
    4.550000    2.3207348932330D+00  2.296D-04
    4.600000    2.3090951303294D+00  2.525D-04
    4.650000    2.2975991088278D+00  2.778D-04
    4.700000    2.2863257853403D+00  3.052D-04
    4.750000    2.2753378920590D+00  3.342D-04
    4.800000    2.2646838881620D+00  3.646D-04
    4.850000    2.2543998242903D+00  3.958D-04
    4.900000    2.2445110897330D+00  4.275D-04
    4.950000    2.2350340228407D+00  4.593D-04
    5.000000    2.2259773740460D+00  4.909D-04
    5.050000    2.2173436178775D+00  5.220D-04
    5.100000    2.2091301157007D+00  5.523D-04
    5.150000    2.2013301348411D+00  5.816D-04
    5.200000    2.1939337324685D+00  6.096D-04
    5.250000    2.1869285143675D+00  6.362D-04
    5.300000    2.1803002796882D+00  6.614D-04
    5.350000    2.1740335631354D+00  6.848D-04
    5.400000    2.1681120859723D+00  7.066D-04
    5.450000    2.1625191268043D+00  7.267D-04
    5.500000    2.1572378224800D+00  7.449D-04
    5.550000    2.1522514086742D+00  7.613D-04
    5.600000    2.1475434088738D+00  7.760D-04
    5.650000    2.1430977796137D+00  7.889D-04
    5.700000    2.1388990189430D+00  8.000D-04
    5.750000    2.1349322442725D+00  8.094D-04
    5.800000    2.1311832449668D+00  8.172D-04
    5.850000    2.1276385143264D+00  8.234D-04
    5.900000    2.1242852649439D+00  8.281D-04
    5.950000    2.1211114308272D+00  8.314D-04
    6.000000    2.1181056591605D+00  8.333D-04
    6.050000    2.1152572941052D+00  8.338D-04
    6.100000    2.1125563546465D+00  8.332D-04
    6.150000    2.1099935081344D+00  8.314D-04
    6.200000    2.1075600408731D+00  8.286D-04
    6.250000    2.1052478268530D+00  8.247D-04
    6.300000    2.1030492955026D+00  8.199D-04
    6.350000    2.1009573991558D+00  8.143D-04
    6.400000    2.0989655807743D+00  8.079D-04
    6.450000    2.0970677423412D+00  8.008D-04
    6.500000    2.0952582142316D+00  7.931D-04
    6.550000    2.0935317257865D+00  7.847D-04
    6.600000    2.0918833772399D+00  7.759D-04
    6.650000    2.0903086130982D+00  7.665D-04
    6.700000    2.0888031970221D+00  7.568D-04
    6.750000    2.0873631882295D+00  7.467D-04
    6.800000    2.0859849194083D+00  7.362D-04
    6.850000    2.0846649761068D+00  7.255D-04
    6.900000    2.0834001775584D+00  7.146D-04
    6.950000    2.0821875588788D+00  7.034D-04
    7.000000    2.0810243545749D+00  6.921D-04
    7.050000    2.0799079832927D+00  6.807D-04
    7.100000    2.0788360337338D+00  6.692D-04
    7.150000    2.0778062516659D+00  6.576D-04
    7.200000    2.0768165279576D+00  6.459D-04
    7.250000    2.0758648875635D+00  6.343D-04
    7.300000    2.0749494793939D+00  6.226D-04
    7.350000    2.0740685670025D+00  6.110D-04
    7.400000    2.0732205200289D+00  5.994D-04
    7.450000    2.0724038063394D+00  5.878D-04
    7.500000    2.0716169848077D+00  5.764D-04
    7.550000    2.0708586986866D+00  5.650D-04
    7.600000    2.0701276695206D+00  5.538D-04
    7.650000    2.0694226915546D+00  5.426D-04
    7.700000    2.0687426265987D+00  5.316D-04
    7.750000    2.0680863993091D+00  5.207D-04
    7.800000    2.0674529928503D+00  5.099D-04
    7.850000    2.0668414449066D+00  4.993D-04
    7.900000    2.0662508440123D+00  4.888D-04
    7.950000    2.0656803261737D+00  4.785D-04
    8.000000    2.0651290717575D+00  4.684D-04
    8.050000    2.0645963026234D+00  4.584D-04
    8.100000    2.0640812794784D+00  4.486D-04
    8.150000    2.0635832994356D+00  4.389D-04
    8.200000    2.0631016937590D+00  4.294D-04
    8.250000    2.0626358257777D+00  4.201D-04
    8.300000    2.0621850889570D+00  4.110D-04
    8.350000    2.0617489051109D+00  4.020D-04
    8.400000    2.0613267227460D+00  3.932D-04
    8.450000    2.0609180155239D+00  3.846D-04
    8.500000    2.0605222808340D+00  3.762D-04
    8.550000    2.0601390384663D+00  3.679D-04
    8.600000    2.0597678293764D+00  3.598D-04
    8.650000    2.0594082145350D+00  3.519D-04
    8.700000    2.0590597738555D+00  3.441D-04
    8.750000    2.0587221051928D+00  3.365D-04
    8.800000    2.0583948234081D+00  3.291D-04
    8.850000    2.0580775594943D+00  3.218D-04
    8.900000    2.0577699597570D+00  3.147D-04
    8.950000    2.0574716850478D+00  3.077D-04
    9.000000    2.0571824100445D+00  3.009D-04
    9.050000    2.0569018225754D+00  2.943D-04
    9.100000    2.0566296229853D+00  2.878D-04
    9.150000    2.0563655235377D+00  2.815D-04
    9.200000    2.0561092478536D+00  2.753D-04
    9.250000    2.0558605303814D+00  2.692D-04
    9.300000    2.0556191158982D+00  2.633D-04
    9.350000    2.0553847590381D+00  2.575D-04
    9.400000    2.0551572238474D+00  2.519D-04
    9.450000    2.0549362833635D+00  2.463D-04
    9.500000    2.0547217192174D+00  2.409D-04
    9.550000    2.0545133212564D+00  2.357D-04
    9.600000    2.0543108871871D+00  2.306D-04
    9.650000    2.0541142222374D+00  2.255D-04
    9.700000    2.0539231388346D+00  2.206D-04
    9.750000    2.0537374563010D+00  2.159D-04
    9.800000    2.0535570005644D+00  2.112D-04
    9.850000    2.0533816038823D+00  2.067D-04
    9.900000    2.0532111045807D+00  2.022D-04
    9.950000    2.0530453468045D+00  1.979D-04
   10.000000    2.0528841802804D+00  1.936D-04
   10.050000    2.0527274600910D+00  1.895D-04
   10.100000    2.0525750464594D+00  1.855D-04
   10.150000    2.0524268045437D+00  1.815D-04
   10.200000    2.0522826042413D+00  1.777D-04
   10.250000    2.0521423200014D+00  1.739D-04
   10.300000    2.0520058306472D+00  1.703D-04
   10.350000    2.0518730192046D+00  1.667D-04
   10.400000    2.0517437727395D+00  1.632D-04
   10.450000    2.0516179822023D+00  1.598D-04
   10.500000    2.0514955422781D+00  1.565D-04
   10.550000    2.0513763512450D+00  1.533D-04
   10.600000    2.0512603108371D+00  1.501D-04
   10.650000    2.0511473261142D+00  1.470D-04
   10.700000    2.0510373053364D+00  1.440D-04
   10.750000    2.0509301598448D+00  1.411D-04
   10.800000    2.0508258039465D+00  1.382D-04
   10.850000    2.0507241548042D+00  1.354D-04
   10.900000    2.0506251323315D+00  1.327D-04
   10.950000    2.0505286590912D+00  1.300D-04
   11.000000    2.0504346601985D+00  1.274D-04
   11.050000    2.0503430632279D+00  1.249D-04
   11.100000    2.0502537981241D+00  1.224D-04
   11.150000    2.0501667971159D+00  1.200D-04
   11.200000    2.0500819946342D+00  1.176D-04
   11.250000    2.0499993272330D+00  1.153D-04
   11.300000    2.0499187335133D+00  1.131D-04
   11.350000    2.0498401540505D+00  1.109D-04
   11.400000    2.0497635313240D+00  1.087D-04
   11.450000    2.0496888096502D+00  1.066D-04
   11.500000    2.0496159351176D+00  1.046D-04
   11.550000    2.0495448555247D+00  1.026D-04
   11.600000    2.0494755203202D+00  1.007D-04
   11.650000    2.0494078805454D+00  9.875D-05
   11.700000    2.0493418887789D+00  9.690D-05
   11.750000    2.0492774990837D+00  9.509D-05
   11.800000    2.0492146669555D+00  9.332D-05
   11.850000    2.0491533492738D+00  9.160D-05
   11.900000    2.0490935042542D+00  8.992D-05
   11.950000    2.0490350914031D+00  8.828D-05
   12.000000    2.0489780714736D+00  8.667D-05
   12.050000    2.0489224064232D+00  8.511D-05
   12.100000    2.0488680593730D+00  8.358D-05
   12.150000    2.0488149945686D+00  8.209D-05
   12.200000    2.0487631773421D+00  8.063D-05
   12.250000    2.0487125740761D+00  7.921D-05
   12.300000    2.0486631521683D+00  7.782D-05
   12.350000    2.0486148799977D+00  7.647D-05
   12.400000    2.0485677268922D+00  7.514D-05
   12.450000    2.0485216630971D+00  7.385D-05
   12.500000    2.0484766597448D+00  7.259D-05
   12.550000    2.0484326888260D+00  7.136D-05
   12.600000    2.0483897231610D+00  7.016D-05
   12.650000    2.0483477363729D+00  6.899D-05
   12.700000    2.0483067028615D+00  6.784D-05
   12.750000    2.0482665977780D+00  6.673D-05
   12.800000    2.0482273970006D+00  6.564D-05
   12.850000    2.0481890771110D+00  6.457D-05
   12.900000    2.0481516153721D+00  6.353D-05
   12.950000    2.0481149897057D+00  6.252D-05
   13.000000    2.0480791786715D+00  6.153D-05
   13.050000    2.0480441614470D+00  6.056D-05
   13.100000    2.0480099178078D+00  5.962D-05
   13.150000    2.0479764281082D+00  5.870D-05
   13.200000    2.0479436732636D+00  5.780D-05
   13.250000    2.0479116347321D+00  5.692D-05
   13.300000    2.0478802944980D+00  5.606D-05
   13.350000    2.0478496350551D+00  5.523D-05
   13.400000    2.0478196393906D+00  5.441D-05
   13.450000    2.0477902909700D+00  5.362D-05
   13.500000    2.0477615737221D+00  5.284D-05
   13.550000    2.0477334720248D+00  5.208D-05
   13.600000    2.0477059706909D+00  5.134D-05
   13.650000    2.0476790549550D+00  5.062D-05
   13.700000    2.0476527104606D+00  4.992D-05
   13.750000    2.0476269232473D+00  4.923D-05
   13.800000    2.0476016797387D+00  4.856D-05
   13.850000    2.0475769667312D+00  4.790D-05
   13.900000    2.0475527713820D+00  4.727D-05
   13.950000    2.0475290811986D+00  4.664D-05
   14.000000    2.0475058840284D+00  4.604D-05
   14.050000    2.0474831680478D+00  4.544D-05
   14.100000    2.0474609217531D+00  4.487D-05
   14.150000    2.0474391339502D+00  4.430D-05
   14.200000    2.0474177937460D+00  4.375D-05
   14.250000    2.0473968905390D+00  4.322D-05
   14.300000    2.0473764140110D+00  4.269D-05
   14.350000    2.0473563541183D+00  4.218D-05
   14.400000    2.0473367010840D+00  4.169D-05
   14.450000    2.0473174453899D+00  4.120D-05
   14.500000    2.0472985777689D+00  4.073D-05
   14.550000    2.0472800891979D+00  4.027D-05
   14.600000    2.0472619708904D+00  3.982D-05
   14.650000    2.0472442142899D+00  3.938D-05
   14.700000    2.0472268110630D+00  3.895D-05
   14.750000    2.0472097530928D+00  3.854D-05
   14.800000    2.0471930324731D+00  3.813D-05
   14.850000    2.0471766415022D+00  3.774D-05
   14.900000    2.0471605726766D+00  3.735D-05
   14.950000    2.0471448186859D+00  3.698D-05
   15.000000    2.0471293724070D+00  3.661D-05
   15.050000    2.0471142268990D+00  3.625D-05
   15.100000    2.0470993753975D+00  3.591D-05
   15.150000    2.0470848113102D+00  3.557D-05
   15.200000    2.0470705282119D+00  3.524D-05
   15.250000    2.0470565198396D+00  3.492D-05
   15.300000    2.0470427800879D+00  3.460D-05
   15.350000    2.0470293030051D+00  3.430D-05
   15.400000    2.0470160827882D+00  3.400D-05
   15.450000    2.0470031137794D+00  3.371D-05
   15.500000    2.0469903904616D+00  3.343D-05
   15.550000    2.0469779074549D+00  3.316D-05
   15.600000    2.0469656595124D+00  3.289D-05
   15.650000    2.0469536415169D+00  3.263D-05
   15.700000    2.0469418484772D+00  3.238D-05
   15.750000    2.0469302755245D+00  3.213D-05
   15.800000    2.0469189179093D+00  3.189D-05
   15.850000    2.0469077709981D+00  3.166D-05
   15.900000    2.0468968302701D+00  3.143D-05
   15.950000    2.0468860913143D+00  3.121D-05
   16.000000    2.0468755498265D+00  3.099D-05
   16.050000    2.0468652016064D+00  3.078D-05
   16.100000    2.0468550425549D+00  3.058D-05
   16.150000    2.0468450686711D+00  3.038D-05
   16.200000    2.0468352760501D+00  3.019D-05
   16.250000    2.0468256608801D+00  3.000D-05
   16.300000    2.0468162194401D+00  2.982D-05
   16.350000    2.0468069480975D+00  2.964D-05
   16.400000    2.0467978433056D+00  2.947D-05
   16.450000    2.0467889016015D+00  2.930D-05
   16.500000    2.0467801196039D+00  2.913D-05
   16.550000    2.0467714940108D+00  2.897D-05
   16.600000    2.0467630215975D+00  2.882D-05
   16.650000    2.0467546992149D+00  2.867D-05
   16.700000    2.0467465237869D+00  2.852D-05
   16.750000    2.0467384923090D+00  2.838D-05
   16.800000    2.0467306018463D+00  2.824D-05
   16.850000    2.0467228495317D+00  2.810D-05
   16.900000    2.0467152325642D+00  2.797D-05
   16.950000    2.0467077482070D+00  2.785D-05
   17.000000    2.0467003937863D+00  2.772D-05
   17.050000    2.0466931666891D+00  2.760D-05
   17.100000    2.0466860643622D+00  2.748D-05
   17.150000    2.0466790843103D+00  2.737D-05
   17.200000    2.0466722240948D+00  2.726D-05
   17.250000    2.0466654813320D+00  2.715D-05
   17.300000    2.0466588536923D+00  2.704D-05
   17.350000    2.0466523388981D+00  2.694D-05
   17.400000    2.0466459347233D+00  2.684D-05
   17.450000    2.0466396389913D+00  2.674D-05
   17.500000    2.0466334495742D+00  2.665D-05
   17.550000    2.0466273643915D+00  2.656D-05
   17.600000    2.0466213814087D+00  2.647D-05
   17.650000    2.0466154986365D+00  2.638D-05
   17.700000    2.0466097141295D+00  2.630D-05
   17.750000    2.0466040259852D+00  2.622D-05
   17.800000    2.0465984323426D+00  2.614D-05
   17.850000    2.0465929313819D+00  2.606D-05
   17.900000    2.0465875213227D+00  2.599D-05
   17.950000    2.0465822004237D+00  2.591D-05
   18.000000    2.0465769669812D+00  2.584D-05
   18.050000    2.0465718193286D+00  2.577D-05
   18.100000    2.0465667558352D+00  2.571D-05
   18.150000    2.0465617749057D+00  2.564D-05
   18.200000    2.0465568749789D+00  2.558D-05
   18.250000    2.0465520545273D+00  2.551D-05
   18.300000    2.0465473120559D+00  2.545D-05
   18.350000    2.0465426461018D+00  2.540D-05
   18.400000    2.0465380552331D+00  2.534D-05
   18.450000    2.0465335380485D+00  2.528D-05
   18.500000    2.0465290931761D+00  2.523D-05
   18.550000    2.0465247192734D+00  2.518D-05
   18.600000    2.0465204150259D+00  2.513D-05
   18.650000    2.0465161791468D+00  2.508D-05
   18.700000    2.0465120103763D+00  2.503D-05
   18.750000    2.0465079074811D+00  2.498D-05
   18.800000    2.0465038692534D+00  2.494D-05
   18.850000    2.0464998945108D+00  2.489D-05
   18.900000    2.0464959820953D+00  2.485D-05
   18.950000    2.0464921308729D+00  2.481D-05
   19.000000    2.0464883397330D+00  2.477D-05
   19.050000    2.0464846075881D+00  2.473D-05
   19.100000    2.0464809333727D+00  2.469D-05
   19.150000    2.0464773160436D+00  2.465D-05
   19.200000    2.0464737545786D+00  2.462D-05
   19.250000    2.0464702479764D+00  2.458D-05
   19.300000    2.0464667952563D+00  2.455D-05
   19.350000    2.0464633954574D+00  2.451D-05
   19.400000    2.0464600476381D+00  2.448D-05
   19.450000    2.0464567508762D+00  2.445D-05
   19.500000    2.0464535042678D+00  2.442D-05
   19.550000    2.0464503069272D+00  2.439D-05
   19.600000    2.0464471579866D+00  2.436D-05
   19.650000    2.0464440565956D+00  2.433D-05
   19.700000    2.0464410019205D+00  2.430D-05
   19.750000    2.0464379931446D+00  2.427D-05
   19.800000    2.0464350294672D+00  2.425D-05
   19.850000    2.0464321101034D+00  2.422D-05
   19.900000    2.0464292342841D+00  2.420D-05
   19.950000    2.0464264012550D+00  2.417D-05
   20.000000    2.0464236102771D+00  2.415D-05
   20.050000    2.0464208606255D+00  2.413D-05
   20.100000    2.0464181515898D+00  2.411D-05
   20.150000    2.0464154824733D+00  2.408D-05
   20.200000    2.0464128525930D+00  2.406D-05
   20.250000    2.0464102612790D+00  2.404D-05
   20.300000    2.0464077078747D+00  2.402D-05
   20.350000    2.0464051917359D+00  2.400D-05
   20.400000    2.0464027122312D+00  2.398D-05
   20.450000    2.0464002687409D+00  2.397D-05
   20.500000    2.0463978606577D+00  2.395D-05
   20.550000    2.0463954873855D+00  2.393D-05
   20.600000    2.0463931483401D+00  2.391D-05
   20.650000    2.0463908429480D+00  2.390D-05
   20.700000    2.0463885706468D+00  2.388D-05
   20.750000    2.0463863308849D+00  2.387D-05
   20.800000    2.0463841231211D+00  2.385D-05
   20.850000    2.0463819468242D+00  2.384D-05
   20.900000    2.0463798014734D+00  2.382D-05
   20.950000    2.0463776865574D+00  2.381D-05
   21.000000    2.0463756015748D+00  2.379D-05
   21.050000    2.0463735460333D+00  2.378D-05
   21.100000    2.0463715194499D+00  2.377D-05
   21.150000    2.0463695213508D+00  2.375D-05
   21.200000    2.0463675512709D+00  2.374D-05
   21.250000    2.0463656087535D+00  2.373D-05
   21.300000    2.0463636933508D+00  2.372D-05
   21.350000    2.0463618046229D+00  2.371D-05
   21.400000    2.0463599421383D+00  2.370D-05
   21.450000    2.0463581054732D+00  2.369D-05
   21.500000    2.0463562942118D+00  2.367D-05
   21.550000    2.0463545079458D+00  2.366D-05
   21.600000    2.0463527462744D+00  2.365D-05
   21.650000    2.0463510088041D+00  2.364D-05
   21.700000    2.0463492951485D+00  2.364D-05
   21.750000    2.0463476049284D+00  2.363D-05
   21.800000    2.0463459377713D+00  2.362D-05
   21.850000    2.0463442933114D+00  2.361D-05
   21.900000    2.0463426711898D+00  2.360D-05
   21.950000    2.0463410710537D+00  2.359D-05
   22.000000    2.0463394925569D+00  2.358D-05
   22.050000    2.0463379353592D+00  2.358D-05
   22.100000    2.0463363991266D+00  2.357D-05
   22.150000    2.0463348835311D+00  2.356D-05
   22.200000    2.0463333882504D+00  2.355D-05
   22.250000    2.0463319129682D+00  2.355D-05
   22.300000    2.0463304573734D+00  2.354D-05
   22.350000    2.0463290211608D+00  2.353D-05
   22.400000    2.0463276040303D+00  2.353D-05
   22.450000    2.0463262056872D+00  2.352D-05
   22.500000    2.0463248258421D+00  2.351D-05
   22.550000    2.0463234642105D+00  2.351D-05
   22.600000    2.0463221205129D+00  2.350D-05
   22.650000    2.0463207944747D+00  2.350D-05
   22.700000    2.0463194858262D+00  2.349D-05
   22.750000    2.0463181943023D+00  2.348D-05
   22.800000    2.0463169196424D+00  2.348D-05
   22.850000    2.0463156615906D+00  2.347D-05
   22.900000    2.0463144198952D+00  2.347D-05
   22.950000    2.0463131943092D+00  2.346D-05
   23.000000    2.0463119845894D+00  2.346D-05
   23.050000    2.0463107904971D+00  2.345D-05
   23.100000    2.0463096117976D+00  2.345D-05
   23.150000    2.0463084482602D+00  2.345D-05
   23.200000    2.0463072996581D+00  2.344D-05
   23.250000    2.0463061657684D+00  2.344D-05
   23.300000    2.0463050463721D+00  2.343D-05
   23.350000    2.0463039412537D+00  2.343D-05
   23.400000    2.0463028502014D+00  2.342D-05
   23.450000    2.0463017730072D+00  2.342D-05
   23.500000    2.0463007094662D+00  2.342D-05
   23.550000    2.0462996593774D+00  2.341D-05
   23.600000    2.0462986225429D+00  2.341D-05
   23.650000    2.0462975987680D+00  2.341D-05
   23.700000    2.0462965878617D+00  2.340D-05
   23.750000    2.0462955896356D+00  2.340D-05
   23.800000    2.0462946039050D+00  2.340D-05
   23.850000    2.0462936304878D+00  2.339D-05
   23.900000    2.0462926692053D+00  2.339D-05
   23.950000    2.0462917198815D+00  2.339D-05
   24.000000    2.0462907823434D+00  2.338D-05
   24.050000    2.0462898564209D+00  2.338D-05
   24.100000    2.0462889419465D+00  2.338D-05
   24.150000    2.0462880387557D+00  2.338D-05
   24.200000    2.0462871466866D+00  2.337D-05
   24.250000    2.0462862655798D+00  2.337D-05
   24.300000    2.0462853952788D+00  2.337D-05
   24.350000    2.0462845356293D+00  2.337D-05
   24.400000    2.0462836864798D+00  2.336D-05
   24.450000    2.0462828476811D+00  2.336D-05
   24.500000    2.0462820190864D+00  2.336D-05
   24.550000    2.0462812005514D+00  2.336D-05
   24.600000    2.0462803919340D+00  2.335D-05
   24.650000    2.0462795930945D+00  2.335D-05
   24.700000    2.0462788038953D+00  2.335D-05
   24.750000    2.0462780242011D+00  2.335D-05
   24.800000    2.0462772538788D+00  2.335D-05
   24.850000    2.0462764927973D+00  2.334D-05
   24.900000    2.0462757408277D+00  2.334D-05
   24.950000    2.0462749978430D+00  2.334D-05
   25.000000    2.0462742637185D+00  2.334D-05
   25.050000    2.0462735383312D+00  2.334D-05
   25.100000    2.0462728215601D+00  2.334D-05
   25.150000    2.0462721132862D+00  2.333D-05
   25.200000    2.0462714133923D+00  2.333D-05
   25.250000    2.0462707217631D+00  2.333D-05
   25.300000    2.0462700382850D+00  2.333D-05
   25.350000    2.0462693628463D+00  2.333D-05
   25.400000    2.0462686953369D+00  2.333D-05
   25.450000    2.0462680356487D+00  2.332D-05
   25.500000    2.0462673836749D+00  2.332D-05
   25.550000    2.0462667393107D+00  2.332D-05
   25.600000    2.0462661024526D+00  2.332D-05
   25.650000    2.0462654729991D+00  2.332D-05
   25.700000    2.0462648508498D+00  2.332D-05
   25.750000    2.0462642359063D+00  2.332D-05
   25.800000    2.0462636280713D+00  2.332D-05
   25.850000    2.0462630272494D+00  2.331D-05
   25.900000    2.0462624333464D+00  2.331D-05
   25.950000    2.0462618462695D+00  2.331D-05
   26.000000    2.0462612659275D+00  2.331D-05
   26.050000    2.0462606922305D+00  2.331D-05
   26.100000    2.0462601250900D+00  2.331D-05
   26.150000    2.0462595644187D+00  2.331D-05
   26.200000    2.0462590101309D+00  2.331D-05
   26.250000    2.0462584621419D+00  2.331D-05
   26.300000    2.0462579203685D+00  2.331D-05
   26.350000    2.0462573847287D+00  2.330D-05
   26.400000    2.0462568551416D+00  2.330D-05
   26.450000    2.0462563315277D+00  2.330D-05
   26.500000    2.0462558138085D+00  2.330D-05
   26.550000    2.0462553019069D+00  2.330D-05
   26.600000    2.0462547957468D+00  2.330D-05
   26.650000    2.0462542952533D+00  2.330D-05
   26.700000    2.0462538003525D+00  2.330D-05
   26.750000    2.0462533109717D+00  2.330D-05