
variables = "r", "lambda(r)", "Uncertainty"
zone T = "State 1  lambda(r)  5412rref2_74RRRfulls"

    0.600000    1.2115842646071D-02  1.227D-04
    0.650000    1.1942852623775D-02  1.206D-04
    0.700000    1.1731743173014D-02  1.182D-04
    0.750000    1.1480233963723D-02  1.153D-04
    0.800000    1.1187369603984D-02  1.120D-04
    0.850000    1.0853813100613D-02  1.083D-04
    0.900000    1.0482059956145D-02  1.043D-04
    0.950000    1.0076529022369D-02  1.001D-04
    1.000000    9.6434926217165D-03  9.567D-05
    1.050000    9.1908236617703D-03  9.107D-05
    1.100000    8.7275607208413D-03  8.629D-05
    1.150000    8.2633202107109D-03  8.132D-05
    1.200000    7.8076124367558D-03  7.608D-05
    1.250000    7.3691393496991D-03  7.051D-05
    1.300000    6.9551603850069D-03  6.453D-05
    1.350000    6.5710059079858D-03  5.808D-05
    1.400000    6.2197960657792D-03  5.116D-05
    1.450000    5.9023907419342D-03  4.379D-05
    1.500000    5.6175608611646D-03  3.607D-05
    1.550000    5.3623400779535D-03  2.812D-05
    1.600000    5.1324948673251D-03  2.008D-05
    1.650000    4.9230431208025D-03  1.214D-05
    1.700000    4.7287560361430D-03  4.462D-06
    1.750000    4.5445921947282D-03  2.847D-06
    1.800000    4.3660317200628D-03  9.567D-06
    1.850000    4.1892978324694D-03  1.565D-05
    1.900000    4.0114695583394D-03  2.103D-05
    1.950000    3.8305009401999D-03  2.566D-05
    2.000000    3.6451684084986D-03  2.954D-05
    2.050000    3.4549696696521D-03  3.268D-05
    2.100000    3.2599957638383D-03  3.513D-05
    2.150000    3.0607942113339D-03  3.694D-05
    2.200000    2.8582365945682D-03  3.817D-05
    2.250000    2.6533993990907D-03  3.890D-05
    2.300000    2.4474630059636D-03  3.922D-05
    2.350000    2.2416306446523D-03  3.919D-05
    2.400000    2.0370669209368D-03  3.889D-05
    2.450000    1.8348541395623D-03  3.840D-05
    2.500000    1.6359638937224D-03  3.778D-05
    2.550000    1.4412411247920D-03  3.709D-05
    2.600000    1.2513979108965D-03  3.638D-05
    2.650000    1.0670144940174D-03  3.571D-05
    2.700000    8.8854540563805D-04  3.512D-05
    2.750000    7.1632893277102D-04  3.462D-05
    2.800000    5.5059853619878D-04  3.425D-05
    2.850000    3.9149516608924D-04  3.402D-05
    2.900000    2.3907970523593D-04  3.394D-05
    2.950000    9.3345004209661D-05  3.400D-05
    3.000000   -4.5772841787986D-05  3.419D-05
    3.050000   -1.7838418223566D-04  3.452D-05
    3.100000   -3.0463656889288D-04  3.495D-05
    3.150000   -4.2470660798933D-04  3.548D-05
    3.200000   -5.3879288117513D-04  3.609D-05
    3.250000   -6.4710987553575D-04  3.677D-05
    3.300000   -7.4988284279668D-04  3.749D-05
    3.350000   -8.4734349764534D-04  3.826D-05
    3.400000   -9.3972646195041D-04  3.905D-05
    3.450000   -1.0272663633034D-03  3.985D-05
    3.500000   -1.1101955010397D-03  4.067D-05
    3.550000   -1.1887419994670D-03  4.148D-05
    3.600000   -1.2631283755324D-03  4.229D-05
    3.650000   -1.3335704559773D-03  4.309D-05
    3.700000   -1.4002765867286D-03  4.388D-05
    3.750000   -1.4634470845939D-03  4.464D-05
    3.800000   -1.5232738881092D-03  4.539D-05
    3.850000   -1.5799403705355D-03  4.612D-05
    3.900000   -1.6336212835124D-03  4.683D-05
    3.950000   -1.6844828047335D-03  4.751D-05
    4.000000   -1.7326826672659D-03  4.817D-05
    4.050000   -1.7783703518229D-03  4.881D-05
    4.100000   -1.8216873264751D-03  4.942D-05
    4.150000   -1.8627673210041D-03  5.001D-05
    4.200000   -1.9017366254103D-03  5.057D-05
    4.250000   -1.9387144040456D-03  5.112D-05
    4.300000   -1.9738130184849D-03  5.164D-05
    4.350000   -2.0071383536343D-03  5.214D-05
    4.400000   -2.0387901427211D-03  5.262D-05
    4.450000   -2.0688622877702D-03  5.308D-05
    4.500000   -2.0974431729609D-03  5.352D-05
    4.550000   -2.1246159689090D-03  5.394D-05
    4.600000   -2.1504589264505D-03  5.435D-05
    4.650000   -2.1750456589376D-03  5.474D-05
    4.700000   -2.1984454124069D-03  5.511D-05
    4.750000   -2.2207233232612D-03  5.546D-05
    4.800000   -2.2419406633292D-03  5.580D-05
    4.850000   -2.2621550723436D-03  5.613D-05
    4.900000   -2.2814207780146D-03  5.644D-05
    4.950000   -2.2997888039801D-03  5.674D-05
    5.000000   -2.3173071659906D-03  5.702D-05
    5.050000   -2.3340210567461D-03  5.729D-05
    5.100000   -2.3499730198366D-03  5.756D-05
    5.150000   -2.3652031132673D-03  5.781D-05
    5.200000   -2.3797490630607D-03  5.805D-05
    5.250000   -2.3936464074319D-03  5.828D-05
    5.300000   -2.4069286320342D-03  5.850D-05
    5.350000   -2.4196272967616D-03  5.871D-05
    5.400000   -2.4317721545849D-03  5.891D-05
    5.450000   -2.4433912628816D-03  5.911D-05
    5.500000   -2.4545110877067D-03  5.930D-05
    5.550000   -2.4651566014282D-03  5.947D-05
    5.600000   -2.4753513741353D-03  5.965D-05
    5.650000   -2.4851176592074D-03  5.981D-05
    5.700000   -2.4944764734096D-03  5.997D-05
    5.750000   -2.5034476718639D-03  6.012D-05
    5.800000   -2.5120500182237D-03  6.027D-05
    5.850000   -2.5203012503604D-03  6.041D-05
    5.900000   -2.5282181418537D-03  6.054D-05
    5.950000   -2.5358165595594D-03  6.067D-05
    6.000000   -2.5431115175098D-03  6.080D-05
    6.050000   -2.5501172273882D-03  6.092D-05
    6.100000   -2.5568471458026D-03  6.103D-05
    6.150000   -2.5633140185686D-03  6.114D-05
    6.200000   -2.5695299221989D-03  6.125D-05
    6.250000   -2.5755063027839D-03  6.135D-05
    6.300000   -2.5812540124338D-03  6.145D-05
    6.350000   -2.5867833434451D-03  6.155D-05
    6.400000   -2.5921040603389D-03  6.164D-05
    6.450000   -2.5972254299120D-03  6.173D-05
    6.500000   -2.6021562494320D-03  6.181D-05
    6.550000   -2.6069048730957D-03  6.190D-05
    6.600000   -2.6114792368668D-03  6.198D-05
    6.650000   -2.6158868817970D-03  6.205D-05
    6.700000   -2.6201349759293D-03  6.213D-05
    6.750000   -2.6242303348767D-03  6.220D-05
    6.800000   -2.6281794411599D-03  6.227D-05
    6.850000   -2.6319884623862D-03  6.233D-05
    6.900000   -2.6356632683426D-03  6.240D-05
    6.950000   -2.6392094470731D-03  6.246D-05
    7.000000   -2.6426323200053D-03  6.252D-05
    7.050000   -2.6459369561866D-03  6.257D-05
    7.100000   -2.6491281856857D-03  6.263D-05
    7.150000   -2.6522106122140D-03  6.268D-05
    7.200000   -2.6551886250136D-03  6.274D-05
    7.250000   -2.6580664100592D-03  6.279D-05
    7.300000   -2.6608479606174D-03  6.283D-05
    7.350000   -2.6635370872008D-03  6.288D-05
    7.400000   -2.6661374269573D-03  6.293D-05
    7.450000   -2.6686524525270D-03  6.297D-05
    7.500000   -2.6710854804015D-03  6.301D-05
    7.550000   -2.6734396788132D-03  6.305D-05
    7.600000   -2.6757180751865D-03  6.309D-05
    7.650000   -2.6779235631749D-03  6.313D-05
    7.700000   -2.6800589093094D-03  6.317D-05
    7.750000   -2.6821267592829D-03  6.321D-05
    7.800000   -2.6841296438905D-03  6.324D-05
    7.850000   -2.6860699846473D-03  6.328D-05
    7.900000   -2.6879500991026D-03  6.331D-05
    7.950000   -2.6897722058679D-03  6.334D-05
    8.000000   -2.6915384293757D-03  6.337D-05
    8.050000   -2.6932508043860D-03  6.340D-05
    8.100000   -2.6949112802524D-03  6.343D-05
    8.150000   -2.6965217249646D-03  6.346D-05
    8.200000   -2.6980839289786D-03  6.349D-05
    8.250000   -2.6995996088467D-03  6.351D-05
    8.300000   -2.7010704106599D-03  6.354D-05
    8.350000   -2.7024979133114D-03  6.357D-05
    8.400000   -2.7038836315936D-03  6.359D-05
    8.450000   -2.7052290191359D-03  6.361D-05
    8.500000   -2.7065354711934D-03  6.364D-05
    8.550000   -2.7078043272946D-03  6.366D-05
    8.600000   -2.7090368737554D-03  6.368D-05
    8.650000   -2.7102343460677D-03  6.370D-05
    8.700000   -2.7113979311684D-03  6.372D-05
    8.750000   -2.7125287695961D-03  6.374D-05
    8.800000   -2.7136279575413D-03  6.376D-05
    8.850000   -2.7146965487962D-03  6.378D-05
    8.900000   -2.7157355566085D-03  6.380D-05
    8.950000   -2.7167459554460D-03  6.382D-05
    9.000000   -2.7177286826752D-03  6.383D-05
    9.050000   -2.7186846401590D-03  6.385D-05
    9.100000   -2.7196146957785D-03  6.387D-05
    9.150000   -2.7205196848815D-03  6.388D-05
    9.200000   -2.7214004116628D-03  6.390D-05
    9.250000   -2.7222576504794D-03  6.391D-05
    9.300000   -2.7230921471030D-03  6.393D-05
    9.350000   -2.7239046199153D-03  6.394D-05
    9.400000   -2.7246957610467D-03  6.396D-05
    9.450000   -2.7254662374623D-03  6.397D-05
    9.500000   -2.7262166919988D-03  6.398D-05
    9.550000   -2.7269477443525D-03  6.400D-05
    9.600000   -2.7276599920231D-03  6.401D-05
    9.650000   -2.7283540112145D-03  6.402D-05
    9.700000   -2.7290303576945D-03  6.403D-05
    9.750000   -2.7296895676165D-03  6.404D-05
    9.800000   -2.7303321583034D-03  6.406D-05
    9.850000   -2.7309586289975D-03  6.407D-05
    9.900000   -2.7315694615767D-03  6.408D-05
    9.950000   -2.7321651212389D-03  6.409D-05
   10.000000   -2.7327460571568D-03  6.410D-05
   10.050000   -2.7333127031036D-03  6.411D-05
   10.100000   -2.7338654780516D-03  6.412D-05
   10.150000   -2.7344047867451D-03  6.413D-05
   10.200000   -2.7349310202477D-03  6.414D-05
   10.250000   -2.7354445564678D-03  6.415D-05
   10.300000   -2.7359457606593D-03  6.416D-05
   10.350000   -2.7364349859032D-03  6.416D-05
   10.400000   -2.7369125735673D-03  6.417D-05
   10.450000   -2.7373788537473D-03  6.418D-05
   10.500000   -2.7378341456889D-03  6.419D-05
   10.550000   -2.7382787581924D-03  6.420D-05
   10.600000   -2.7387129900008D-03  6.420D-05
   10.650000   -2.7391371301711D-03  6.421D-05
   10.700000   -2.7395514584310D-03  6.422D-05
   10.750000   -2.7399562455207D-03  6.423D-05
   10.800000   -2.7403517535201D-03  6.423D-05
   10.850000   -2.7407382361641D-03  6.424D-05
   10.900000   -2.7411159391433D-03  6.425D-05
   10.950000   -2.7414851003943D-03  6.425D-05
   11.000000   -2.7418459503770D-03  6.426D-05
   11.050000   -2.7421987123418D-03  6.427D-05
   11.100000   -2.7425436025850D-03  6.427D-05
   11.150000   -2.7428808306956D-03  6.428D-05
   11.200000   -2.7432105997908D-03  6.428D-05
   11.250000   -2.7435331067434D-03  6.429D-05
   11.300000   -2.7438485423994D-03  6.430D-05
   11.350000   -2.7441570917880D-03  6.430D-05
   11.400000   -2.7444589343226D-03  6.431D-05
   11.450000   -2.7447542439945D-03  6.431D-05
   11.500000   -2.7450431895592D-03  6.432D-05
   11.550000   -2.7453259347150D-03  6.432D-05
   11.600000   -2.7456026382757D-03  6.433D-05
   11.650000   -2.7458734543358D-03  6.433D-05
   11.700000   -2.7461385324297D-03  6.434D-05
   11.750000   -2.7463980176855D-03  6.434D-05
   11.800000   -2.7466520509721D-03  6.435D-05
   11.850000   -2.7469007690417D-03  6.435D-05
   11.900000   -2.7471443046657D-03  6.435D-05
   11.950000   -2.7473827867674D-03  6.436D-05
   12.000000   -2.7476163405479D-03  6.436D-05
   12.050000   -2.7478450876088D-03  6.437D-05
   12.100000   -2.7480691460693D-03  6.437D-05
   12.150000   -2.7482886306802D-03  6.437D-05
   12.200000   -2.7485036529323D-03  6.438D-05
   12.250000   -2.7487143211625D-03  6.438D-05
   12.300000   -2.7489207406545D-03  6.439D-05
   12.350000   -2.7491230137370D-03  6.439D-05
   12.400000   -2.7493212398780D-03  6.439D-05
   12.450000   -2.7495155157754D-03  6.440D-05
   12.500000   -2.7497059354450D-03  6.440D-05
   12.550000   -2.7498925903052D-03  6.440D-05
   12.600000   -2.7500755692581D-03  6.441D-05
   12.650000   -2.7502549587687D-03  6.441D-05
   12.700000   -2.7504308429406D-03  6.441D-05
   12.750000   -2.7506033035895D-03  6.442D-05
   12.800000   -2.7507724203138D-03  6.442D-05
   12.850000   -2.7509382705633D-03  6.442D-05
   12.900000   -2.7511009297045D-03  6.442D-05
   12.950000   -2.7512604710850D-03  6.443D-05
   13.000000   -2.7514169660946D-03  6.443D-05
   13.050000   -2.7515704842250D-03  6.443D-05
   13.100000   -2.7517210931268D-03  6.444D-05
   13.150000   -2.7518688586655D-03  6.444D-05
   13.200000   -2.7520138449745D-03  6.444D-05
   13.250000   -2.7521561145076D-03  6.444D-05
   13.300000   -2.7522957280883D-03  6.445D-05
   13.350000   -2.7524327449587D-03  6.445D-05
   13.400000   -2.7525672228262D-03  6.445D-05
   13.450000   -2.7526992179085D-03  6.445D-05
   13.500000   -2.7528287849777D-03  6.445D-05
   13.550000   -2.7529559774021D-03  6.446D-05
   13.600000   -2.7530808471878D-03  6.446D-05
   13.650000   -2.7532034450175D-03  6.446D-05
   13.700000   -2.7533238202894D-03  6.446D-05
   13.750000   -2.7534420211541D-03  6.447D-05
   13.800000   -2.7535580945502D-03  6.447D-05
   13.850000   -2.7536720862394D-03  6.447D-05
   13.900000   -2.7537840408396D-03  6.447D-05
   13.950000   -2.7538940018580D-03  6.447D-05
   14.000000   -2.7540020117220D-03  6.448D-05
   14.050000   -2.7541081118101D-03  6.448D-05
   14.100000   -2.7542123424814D-03  6.448D-05
   14.150000   -2.7543147431036D-03  6.448D-05
   14.200000   -2.7544153520817D-03  6.448D-05
   14.250000   -2.7545142068839D-03  6.448D-05
   14.300000   -2.7546113440681D-03  6.449D-05
   14.350000   -2.7547067993067D-03  6.449D-05
   14.400000   -2.7548006074117D-03  6.449D-05
   14.450000   -2.7548928023574D-03  6.449D-05
   14.500000   -2.7549834173039D-03  6.449D-05
   14.550000   -2.7550724846194D-03  6.449D-05
   14.600000   -2.7551600359014D-03  6.450D-05
   14.650000   -2.7552461019977D-03  6.450D-05
   14.700000   -2.7553307130266D-03  6.450D-05
   14.750000   -2.7554138983968D-03  6.450D-05
   14.800000   -2.7554956868261D-03  6.450D-05
   14.850000   -2.7555761063600D-03  6.450D-05
   14.900000   -2.7556551843897D-03  6.451D-05
   14.950000   -2.7557329476692D-03  6.451D-05
   15.000000   -2.7558094223327D-03  6.451D-05
   15.050000   -2.7558846339104D-03  6.451D-05
   15.100000   -2.7559586073447D-03  6.451D-05
   15.150000   -2.7560313670054D-03  6.451D-05
   15.200000   -2.7561029367048D-03  6.451D-05
   15.250000   -2.7561733397125D-03  6.451D-05
   15.300000   -2.7562425987688D-03  6.452D-05
   15.350000   -2.7563107360990D-03  6.452D-05
   15.400000   -2.7563777734264D-03  6.452D-05
   15.450000   -2.7564437319853D-03  6.452D-05
   15.500000   -2.7565086325335D-03  6.452D-05
   15.550000   -2.7565724953646D-03  6.452D-05
   15.600000   -2.7566353403196D-03  6.452D-05
   15.650000   -2.7566971867985D-03  6.452D-05
   15.700000   -2.7567580537715D-03  6.452D-05
   15.750000   -2.7568179597899D-03  6.453D-05
   15.800000   -2.7568769229962D-03  6.453D-05
   15.850000   -2.7569349611352D-03  6.453D-05
   15.900000   -2.7569920915630D-03  6.453D-05
   15.950000   -2.7570483312574D-03  6.453D-05
   16.000000   -2.7571036968268D-03  6.453D-05
   16.050000   -2.7571582045198D-03  6.453D-05
   16.100000   -2.7572118702335D-03  6.453D-05
   16.150000   -2.7572647095229D-03  6.453D-05
   16.200000   -2.7573167376086D-03  6.453D-05
   16.250000   -2.7573679693855D-03  6.454D-05
   16.300000   -2.7574184194301D-03  6.454D-05
   16.350000   -2.7574681020092D-03  6.454D-05
   16.400000   -2.7575170310865D-03  6.454D-05
   16.450000   -2.7575652203303D-03  6.454D-05
   16.500000   -2.7576126831208D-03  6.454D-05
   16.550000   -2.7576594325566D-03  6.454D-05
   16.600000   -2.7577054814619D-03  6.454D-05
   16.650000   -2.7577508423926D-03  6.454D-05
   16.700000   -2.7577955276430D-03  6.454D-05
   16.750000   -2.7578395492521D-03  6.454D-05
   16.800000   -2.7578829190091D-03  6.454D-05
   16.850000   -2.7579256484599D-03  6.455D-05
   16.900000   -2.7579677489126D-03  6.455D-05
   16.950000   -2.7580092314430D-03  6.455D-05
   17.000000   -2.7580501069000D-03  6.455D-05
   17.050000   -2.7580903859112D-03  6.455D-05
   17.100000   -2.7581300788878D-03  6.455D-05
   17.150000   -2.7581691960294D-03  6.455D-05
   17.200000   -2.7582077473294D-03  6.455D-05
   17.250000   -2.7582457425795D-03  6.455D-05
   17.300000   -2.7582831913742D-03  6.455D-05
   17.350000   -2.7583201031156D-03  6.455D-05
   17.400000   -2.7583564870176D-03  6.455D-05
   17.450000   -2.7583923521103D-03  6.455D-05
   17.500000   -2.7584277072439D-03  6.455D-05
   17.550000   -2.7584625610934D-03  6.455D-05
   17.600000   -2.7584969221619D-03  6.456D-05
   17.650000   -2.7585307987847D-03  6.456D-05
   17.700000   -2.7585641991334D-03  6.456D-05
   17.750000   -2.7585971312189D-03  6.456D-05
   17.800000   -2.7586296028956D-03  6.456D-05
   17.850000   -2.7586616218648D-03  6.456D-05
   17.900000   -2.7586931956777D-03  6.456D-05
   17.950000   -2.7587243317390D-03  6.456D-05
   18.000000   -2.7587550373103D-03  6.456D-05
   18.050000   -2.7587853195131D-03  6.456D-05
   18.100000   -2.7588151853317D-03  6.456D-05
   18.150000   -2.7588446416164D-03  6.456D-05
   18.200000   -2.7588736950865D-03  6.456D-05
   18.250000   -2.7589023523331D-03  6.456D-05
   18.300000   -2.7589306198217D-03  6.456D-05
   18.350000   -2.7589585038951D-03  6.456D-05
   18.400000   -2.7589860107761D-03  6.456D-05
   18.450000   -2.7590131465700D-03  6.456D-05
   18.500000   -2.7590399172671D-03  6.457D-05
   18.550000   -2.7590663287452D-03  6.457D-05
   18.600000   -2.7590923867722D-03  6.457D-05
   18.650000   -2.7591180970079D-03  6.457D-05
   18.700000   -2.7591434650071D-03  6.457D-05
   18.750000   -2.7591684962210D-03  6.457D-05
   18.800000   -2.7591931960001D-03  6.457D-05
   18.850000   -2.7592175695957D-03  6.457D-05
   18.900000   -2.7592416221627D-03  6.457D-05
   18.950000   -2.7592653587608D-03  6.457D-05
   19.000000   -2.7592887843572D-03  6.457D-05
   19.050000   -2.7593119038282D-03  6.457D-05
   19.100000   -2.7593347219611D-03  6.457D-05
   19.150000   -2.7593572434562D-03  6.457D-05
   19.200000   -2.7593794729283D-03  6.457D-05
   19.250000   -2.7594014149089D-03  6.457D-05
   19.300000   -2.7594230738476D-03  6.457D-05
   19.350000   -2.7594444541138D-03  6.457D-05
   19.400000   -2.7594655599985D-03  6.457D-05
   19.450000   -2.7594863957159D-03  6.457D-05
   19.500000   -2.7595069654047D-03  6.457D-05
   19.550000   -2.7595272731300D-03  6.457D-05
   19.600000   -2.7595473228845D-03  6.457D-05
   19.650000   -2.7595671185903D-03  6.457D-05
   19.700000   -2.7595866640998D-03  6.457D-05
   19.750000   -2.7596059631977D-03  6.458D-05
   19.800000   -2.7596250196021D-03  6.458D-05
   19.850000   -2.7596438369655D-03  6.458D-05
   19.900000   -2.7596624188768D-03  6.458D-05
   19.950000   -2.7596807688620D-03  6.458D-05
   20.000000   -2.7596988903858D-03  6.458D-05
   20.050000   -2.7597167868525D-03  6.458D-05
   20.100000   -2.7597344616075D-03  6.458D-05
   20.150000   -2.7597519179383D-03  6.458D-05
   20.200000   -2.7597691590756D-03  6.458D-05
   20.250000   -2.7597861881947D-03  6.458D-05
   20.300000   -2.7598030084162D-03  6.458D-05
   20.350000   -2.7598196228074D-03  6.458D-05
   20.400000   -2.7598360343829D-03  6.458D-05
   20.450000   -2.7598522461063D-03  6.458D-05
   20.500000   -2.7598682608905D-03  6.458D-05
   20.550000   -2.7598840815992D-03  6.458D-05
   20.600000   -2.7598997110476D-03  6.458D-05
   20.650000   -2.7599151520033D-03  6.458D-05
   20.700000   -2.7599304071873D-03  6.458D-05
   20.750000   -2.7599454792749D-03  6.458D-05
   20.800000   -2.7599603708967D-03  6.458D-05
   20.850000   -2.7599750846392D-03  6.458D-05
   20.900000   -2.7599896230458D-03  6.458D-05
   20.950000   -2.7600039886174D-03  6.458D-05
   21.000000   -2.7600181838137D-03  6.458D-05
   21.050000   -2.7600322110534D-03  6.458D-05
   21.100000   -2.7600460727154D-03  6.458D-05
   21.150000   -2.7600597711393D-03  6.458D-05
   21.200000   -2.7600733086263D-03  6.458D-05
   21.250000   -2.7600866874397D-03  6.458D-05
   21.300000   -2.7600999098059D-03  6.458D-05
   21.350000   -2.7601129779150D-03  6.458D-05
   21.400000   -2.7601258939212D-03  6.458D-05
   21.450000   -2.7601386599439D-03  6.458D-05
   21.500000   -2.7601512780680D-03  6.458D-05
   21.550000   -2.7601637503447D-03  6.459D-05
   21.600000   -2.7601760787920D-03  6.459D-05
   21.650000   -2.7601882653957D-03  6.459D-05
   21.700000   -2.7602003121094D-03  6.459D-05
   21.750000   -2.7602122208555D-03  6.459D-05
   21.800000   -2.7602239935256D-03  6.459D-05
   21.850000   -2.7602356319811D-03  6.459D-05
   21.900000   -2.7602471380539D-03  6.459D-05
   21.950000   -2.7602585135467D-03  6.459D-05
   22.000000   -2.7602697602335D-03  6.459D-05
   22.050000   -2.7602808798606D-03  6.459D-05
   22.100000   -2.7602918741464D-03  6.459D-05
   22.150000   -2.7603027447824D-03  6.459D-05
   22.200000   -2.7603134934335D-03  6.459D-05
   22.250000   -2.7603241217386D-03  6.459D-05
   22.300000   -2.7603346313107D-03  6.459D-05
   22.350000   -2.7603450237380D-03  6.459D-05
   22.400000   -2.7603553005838D-03  6.459D-05
   22.450000   -2.7603654633870D-03  6.459D-05
   22.500000   -2.7603755136629D-03  6.459D-05
   22.550000   -2.7603854529031D-03  6.459D-05
   22.600000   -2.7603952825764D-03  6.459D-05
   22.650000   -2.7604050041288D-03  6.459D-05
   22.700000   -2.7604146189843D-03  6.459D-05
   22.750000   -2.7604241285450D-03  6.459D-05
   22.800000   -2.7604335341913D-03  6.459D-05
   22.850000   -2.7604428372830D-03  6.459D-05
   22.900000   -2.7604520391587D-03  6.459D-05
   22.950000   -2.7604611411371D-03  6.459D-05
   23.000000   -2.7604701445165D-03  6.459D-05
   23.050000   -2.7604790505760D-03  6.459D-05
   23.100000   -2.7604878605748D-03  6.459D-05
   23.150000   -2.7604965757538D-03  6.459D-05
   23.200000   -2.7605051973347D-03  6.459D-05
   23.250000   -2.7605137265213D-03  6.459D-05
   23.300000   -2.7605221644989D-03  6.459D-05
   23.350000   -2.7605305124355D-03  6.459D-05
   23.400000   -2.7605387714816D-03  6.459D-05
   23.450000   -2.7605469427705D-03  6.459D-05
   23.500000   -2.7605550274188D-03  6.459D-05
   23.550000   -2.7605630265263D-03  6.459D-05
   23.600000   -2.7605709411769D-03  6.459D-05
   23.650000   -2.7605787724382D-03  6.459D-05
   23.700000   -2.7605865213624D-03  6.459D-05
   23.750000   -2.7605941889859D-03  6.459D-05
   23.800000   -2.7606017763303D-03  6.459D-05
   23.850000   -2.7606092844019D-03  6.459D-05
   23.900000   -2.7606167141924D-03  6.459D-05
   23.950000   -2.7606240666793D-03  6.459D-05
   24.000000   -2.7606313428256D-03  6.459D-05
   24.050000   -2.7606385435805D-03  6.459D-05
   24.100000   -2.7606456698793D-03  6.459D-05
   24.150000   -2.7606527226440D-03  6.459D-05
   24.200000   -2.7606597027832D-03  6.459D-05
   24.250000   -2.7606666111924D-03  6.459D-05
   24.300000   -2.7606734487543D-03  6.459D-05
   24.350000   -2.7606802163389D-03  6.459D-05
   24.400000   -2.7606869148038D-03  6.459D-05
   24.450000   -2.7606935449944D-03  6.459D-05
   24.500000   -2.7607001077440D-03  6.459D-05
   24.550000   -2.7607066038741D-03  6.459D-05
   24.600000   -2.7607130341945D-03  6.459D-05
   24.650000   -2.7607193995035D-03  6.460D-05
   24.700000   -2.7607257005884D-03  6.460D-05
   24.750000   -2.7607319382250D-03  6.460D-05
   24.800000   -2.7607381131785D-03  6.460D-05
   24.850000   -2.7607442262031D-03  6.460D-05
   24.900000   -2.7607502780428D-03  6.460D-05
   24.950000   -2.7607562694308D-03  6.460D-05
   25.000000   -2.7607622010903D-03  6.460D-05
   25.050000   -2.7607680737344D-03  6.460D-05
   25.100000   -2.7607738880661D-03  6.460D-05
   25.150000   -2.7607796447790D-03  6.460D-05
   25.200000   -2.7607853445568D-03  6.460D-05
   25.250000   -2.7607909880739D-03  6.460D-05
   25.300000   -2.7607965759953D-03  6.460D-05
   25.350000   -2.7608021089769D-03  6.460D-05
   25.400000   -2.7608075876656D-03  6.460D-05
   25.450000   -2.7608130126995D-03  6.460D-05
   25.500000   -2.7608183847078D-03  6.460D-05
   25.550000   -2.7608237043112D-03  6.460D-05
   25.600000   -2.7608289721220D-03  6.460D-05
   25.650000   -2.7608341887441D-03  6.460D-05
   25.700000   -2.7608393547732D-03  6.460D-05
   25.750000   -2.7608444707970D-03  6.460D-05
   25.800000   -2.7608495373951D-03  6.460D-05
   25.850000   -2.7608545551393D-03  6.460D-05
   25.900000   -2.7608595245940D-03  6.460D-05
   25.950000   -2.7608644463156D-03  6.460D-05
   26.000000   -2.7608693208532D-03  6.460D-05
   26.050000   -2.7608741487487D-03  6.460D-05
   26.100000   -2.7608789305364D-03  6.460D-05
   26.150000   -2.7608836667439D-03  6.460D-05
   26.200000   -2.7608883578914D-03  6.460D-05
   26.250000   -2.7608930044925D-03  6.460D-05
   26.300000   -2.7608976070536D-03  6.460D-05
   26.350000   -2.7609021660748D-03  6.460D-05
   26.400000   -2.7609066820493D-03  6.460D-05
   26.450000   -2.7609111554640D-03  6.460D-05
   26.500000   -2.7609155867993D-03  6.460D-05
   26.550000   -2.7609199765291D-03  6.460D-05
   26.600000   -2.7609243251214D-03  6.460D-05
   26.650000   -2.7609286330380D-03  6.460D-05
   26.700000   -2.7609329007344D-03  6.460D-05
   26.750000   -2.7609371286605D-03  6.460D-05
   26.800000   -2.7609413172602D-03  6.460D-05
   26.850000   -2.7609454669715D-03  6.460D-05
   26.900000   -2.7609495782269D-03  6.460D-05
   26.950000   -2.7609536514534D-03  6.460D-05
   27.000000   -2.7609576870721D-03  6.460D-05
   27.050000   -2.7609616854990D-03  6.460D-05
   27.100000   -2.7609656471446D-03  6.460D-05
   27.150000   -2.7609695724142D-03  6.460D-05
   27.200000   -2.7609734617079D-03  6.460D-05
   27.250000   -2.7609773154205D-03  6.460D-05
   27.300000   -2.7609811339420D-03  6.460D-05
   27.350000   -2.7609849176572D-03  6.460D-05
   27.400000   -2.7609886669462D-03  6.460D-05
   27.450000   -2.7609923821842D-03  6.460D-05
   27.500000   -2.7609960637416D-03  6.460D-05
   27.550000   -2.7609997119840D-03  6.460D-05
   27.600000   -2.7610033272727D-03  6.460D-05
   27.650000   -2.7610069099641D-03  6.460D-05
   27.700000   -2.7610104604103D-03  6.460D-05
   27.750000   -2.7610139789589D-03  6.460D-05
   27.800000   -2.7610174659531D-03  6.460D-05
   27.850000   -2.7610209217320D-03  6.460D-05
   27.900000   -2.7610243466303D-03  6.460D-05
   27.950000   -2.7610277409784D-03  6.460D-05
   28.000000   -2.7610311051028D-03  6.460D-05
   28.050000   -2.7610344393258D-03  6.460D-05
   28.100000   -2.7610377439659D-03  6.460D-05
   28.150000   -2.7610410193373D-03  6.460D-05
   28.200000   -2.7610442657507D-03  6.460D-05
   28.250000   -2.7610474835127D-03  6.460D-05
   28.300000   -2.7610506729261D-03  6.460D-05
   28.350000   -2.7610538342902D-03  6.460D-05
   28.400000   -2.7610569679004D-03  6.460D-05
   28.450000   -2.7610600740487D-03  6.460D-05
   28.500000   -2.7610631530232D-03  6.460D-05
   28.550000   -2.7610662051087D-03  6.460D-05
   28.600000   -2.7610692305867D-03  6.460D-05
   28.650000   -2.7610722297348D-03  6.460D-05
   28.700000   -2.7610752028276D-03  6.460D-05
   28.750000   -2.7610781501362D-03  6.460D-05
   28.800000   -2.7610810719286D-03  6.460D-05
   28.850000   -2.7610839684692D-03  6.460D-05
   28.900000   -2.7610868400196D-03  6.460D-05
   28.950000   -2.7610896868381D-03  6.460D-05
   29.000000   -2.7610925091797D-03  6.460D-05
   29.050000   -2.7610953072966D-03  6.460D-05
   29.100000   -2.7610980814379D-03  6.460D-05
   29.150000   -2.7611008318496D-03  6.460D-05
   29.200000   -2.7611035587750D-03  6.460D-05
   29.250000   -2.7611062624542D-03  6.460D-05
   29.300000   -2.7611089431246D-03  6.460D-05
   29.350000   -2.7611116010209D-03  6.460D-05
   29.400000   -2.7611142363748D-03  6.460D-05
   29.450000   -2.7611168494153D-03  6.460D-05
   29.500000   -2.7611194403687D-03  6.460D-05
   29.550000   -2.7611220094588D-03  6.460D-05
   29.600000   -2.7611245569064D-03  6.460D-05
   29.650000   -2.7611270829301D-03  6.460D-05
   29.700000   -2.7611295877456D-03  6.460D-05
   29.750000   -2.7611320715663D-03  6.460D-05
   29.800000   -2.7611345346030D-03  6.460D-05
   29.850000   -2.7611369770639D-03  6.460D-05
   29.900000   -2.7611393991552D-03  6.460D-05
   29.950000   -2.7611418010801D-03  6.460D-05
   30.000000   -2.7611441830400D-03  6.460D-05
   30.050000   -2.7611465452336D-03  6.460D-05
   30.100000   -2.7611488878573D-03  6.460D-05
   30.150000   -2.7611512111055D-03  6.460D-05
   30.200000   -2.7611535151701D-03  6.460D-05
   30.250000   -2.7611558002409D-03  6.460D-05
   30.300000   -2.7611580665055D-03  6.460D-05
   30.350000   -2.7611603141492D-03  6.460D-05
   30.400000   -2.7611625433554D-03  6.460D-05
   30.450000   -2.7611647543052D-03  6.460D-05
   30.500000   -2.7611669471779D-03  6.460D-05
   30.550000   -2.7611691221504D-03  6.460D-05
   30.600000   -2.7611712793977D-03  6.460D-05
   30.650000   -2.7611734190931D-03  6.460D-05
   30.700000   -2.7611755414075D-03  6.460D-05
   30.750000   -2.7611776465101D-03  6.460D-05
   30.800000   -2.7611797345681D-03  6.460D-05
   30.850000   -2.7611818057468D-03  6.460D-05
   30.900000   -2.7611838602098D-03  6.460D-05
   30.950000   -2.7611858981187D-03  6.460D-05
   31.000000   -2.7611879196331D-03  6.460D-05
   31.050000   -2.7611899249113D-03  6.460D-05
   31.100000   -2.7611919141093D-03  6.460D-05
   31.150000   -2.7611938873818D-03  6.460D-05
   31.200000   -2.7611958448813D-03  6.460D-05
   31.250000   -2.7611977867591D-03  6.460D-05
   31.300000   -2.7611997131643D-03  6.460D-05
   31.350000   -2.7612016242449D-03  6.460D-05
   31.400000   -2.7612035201467D-03  6.460D-05
   31.450000   -2.7612054010142D-03  6.460D-05
   31.500000   -2.7612072669904D-03  6.460D-05
   31.550000   -2.7612091182163D-03  6.460D-05
   31.600000   -2.7612109548317D-03  6.460D-05
   31.650000   -2.7612127769749D-03  6.460D-05
   31.700000   -2.7612145847823D-03  6.460D-05
   31.750000   -2.7612163783891D-03  6.460D-05
   31.800000   -2.7612181579290D-03  6.460D-05
   31.850000   -2.7612199235342D-03  6.460D-05
   31.900000   -2.7612216753353D-03  6.460D-05
   31.950000   -2.7612234134618D-03  6.460D-05
   32.000000   -2.7612251380414D-03  6.460D-05
   32.050000   -2.7612268492007D-03  6.460D-05
   32.100000   -2.7612285470647D-03  6.460D-05
   32.150000   -2.7612302317574D-03  6.460D-05
   32.200000   -2.7612319034010D-03  6.460D-05
   32.250000   -2.7612335621168D-03  6.460D-05
   32.300000   -2.7612352080244D-03  6.460D-05
   32.350000   -2.7612368412424D-03  6.460D-05