
variables = "r", "B(r) ", "Uncertainty"
zone T = "State 1 B(r)   66N09p6q2Rf4_8_C3ReD"

    0.000000   -6.9930763814569D+00     0.0
    0.025000   -4.9580063389843D-02     0.0
    0.050000   -4.9580405105339D-02     0.0
    0.075000   -4.9581332634800D-02     0.0
    0.100000   -4.9583138921154D-02     0.0
    0.125000   -4.9586116946985D-02     0.0
    0.150000   -4.9590559743692D-02     0.0
    0.175000   -4.9596760398567D-02     0.0
    0.200000   -4.9605012059777D-02     0.0
    0.225000   -4.9615607939250D-02     0.0
    0.250000   -4.9628841313473D-02     0.0
    0.275000   -4.9645005522185D-02     0.0
    0.300000   -4.9664393964971D-02     0.0
    0.325000   -4.9687300095751D-02     0.0
    0.350000   -4.9714017415157D-02     0.0
    0.375000   -4.9744839460805D-02     0.0
    0.400000   -4.9780059795443D-02     0.0
    0.425000   -4.9819971992992D-02     0.0
    0.450000   -4.9864869622453D-02     0.0
    0.475000   -4.9915046229701D-02     0.0
    0.500000   -4.9970795317146D-02     0.0
    0.525000   -5.0032410321263D-02     0.0
    0.550000   -5.0100184588002D-02     0.0
    0.575000   -5.0174411346045D-02     0.0
    0.600000   -5.0255383677955D-02     0.0
    0.625000   -5.0343394489163D-02     0.0
    0.650000   -5.0438736474843D-02     0.0
    0.675000   -5.0541702084638D-02     0.0
    0.700000   -5.0652583485260D-02     0.0
    0.725000   -5.0771672520953D-02     0.0
    0.750000   -5.0899260671836D-02     0.0
    0.775000   -5.1035639010108D-02     0.0
    0.800000   -5.1181098154143D-02     0.0
    0.825000   -5.1335928220463D-02     0.0
    0.850000   -5.1500418773601D-02     0.0
    0.875000   -5.1674858773864D-02     0.0
    0.900000   -5.1859536522998D-02     0.0
    0.925000   -5.2054739607768D-02     0.0
    0.950000   -5.2260754841467D-02     0.0
    0.975000   -5.2477868203352D-02     0.0
    1.000000   -5.2706364776042D-02     0.0
    1.025000   -5.2946528680864D-02     0.0
    1.050000   -5.3198643011196D-02     0.0
    1.075000   -5.3462989763787D-02     0.0
    1.100000   -5.3739849768105D-02     0.0
    1.125000   -5.4029502613712D-02     0.0
    1.150000   -5.4332226575695D-02     0.0
    1.175000   -5.4648298538174D-02     0.0
    1.200000   -5.4977993915913D-02     0.0
    1.225000   -5.5321586574060D-02     0.0
    1.250000   -5.5679348746040D-02     0.0
    1.275000   -5.6051550949635D-02     0.0
    1.300000   -5.6438461901277D-02     0.0
    1.325000   -5.6840348428591D-02     0.0
    1.350000   -5.7257475381226D-02     0.0
    1.375000   -5.7690105539996D-02     0.0
    1.400000   -5.8138499524389D-02     0.0
    1.425000   -5.8602915698466D-02     0.0
    1.450000   -5.9083610075201D-02     0.0
    1.475000   -5.9580836219314D-02     0.0
    1.500000   -6.0094845148616D-02     0.0
    1.525000   -6.0625885233949D-02     0.0
    1.550000   -6.1174202097742D-02     0.0
    1.575000   -6.1740038511248D-02     0.0
    1.600000   -6.2323634290517D-02     0.0
    1.625000   -6.2925226191146D-02     0.0
    1.650000   -6.3545047801891D-02     0.0
    1.675000   -6.4183329437166D-02     0.0
    1.700000   -6.4840298028520D-02     0.0
    1.725000   -6.5516177015139D-02     0.0
    1.750000   -6.6211186233443D-02     0.0
    1.775000   -6.6925541805848D-02     0.0
    1.800000   -6.7659456028758D-02     0.0
    1.825000   -6.8413137259857D-02     0.0
    1.850000   -6.9186789804785D-02     0.0
    1.875000   -6.9980613803255D-02     0.0
    1.900000   -7.0794805114707D-02     0.0
    1.925000   -7.1629555203566D-02     0.0
    1.950000   -7.2485051024182D-02     0.0
    1.975000   -7.3361474905549D-02     0.0
    2.000000   -7.4259004435869D-02     0.0
    2.025000   -7.5177812347061D-02     0.0
    2.050000   -7.6118066399293D-02     0.0
    2.075000   -7.7079929265634D-02     0.0
    2.100000   -7.8063558416903D-02     0.0
    2.125000   -7.9069106006829D-02     0.0
    2.150000   -8.0096718757590D-02     0.0
    2.175000   -8.1146537845846D-02     0.0
    2.200000   -8.2218698789352D-02  2.949D-04
    2.225000   -8.3313331334246D-02  2.929D-04
    2.250000   -8.4430559343123D-02  2.909D-04
    2.275000   -8.5570500683983D-02  2.889D-04
    2.300000   -8.6733267120156D-02  2.869D-04
    2.325000   -8.7918964201305D-02  2.848D-04
    2.350000   -8.9127691155618D-02  2.827D-04
    2.375000   -9.0359540783281D-02  2.805D-04
    2.400000   -9.1614599351342D-02  2.783D-04
    2.425000   -9.2892946490064D-02  2.761D-04
    2.450000   -9.4194655090890D-02  2.739D-04
    2.475000   -9.5519791206098D-02  2.717D-04
    2.500000   -9.6868413950277D-02  2.694D-04
    2.525000   -9.8240575403716D-02  2.671D-04
    2.550000   -9.9636320517818D-02  2.647D-04
    2.575000   -1.0105568702264D-01  2.624D-04
    2.600000   -1.0249870533668D-01  2.600D-04
    2.625000   -1.0396539847898D-01  2.576D-04
    2.650000   -1.0545578198372D-01  2.552D-04
    2.675000   -1.0696986381731D-01  2.527D-04
    2.700000   -1.0850764429821D-01  2.503D-04
    2.725000   -1.1006911601944D-01  2.478D-04
    2.750000   -1.1165426377400D-01  2.453D-04
    2.775000   -1.1326306448326D-01  2.427D-04
    2.800000   -1.1489548712839D-01  2.402D-04
    2.825000   -1.1655149268504D-01  2.376D-04
    2.850000   -1.1823103406116D-01  2.351D-04
    2.875000   -1.1993405603831D-01  2.325D-04
    2.900000   -1.2166049521643D-01  2.299D-04
    2.925000   -1.2341027996207D-01  2.273D-04
    2.950000   -1.2518333036040D-01  2.246D-04
    2.975000   -1.2697955817089D-01  2.220D-04
    3.000000   -1.2879886678691D-01  2.193D-04
    3.025000   -1.3064115119915D-01  2.167D-04
    3.050000   -1.3250629796314D-01  2.140D-04
    3.075000   -1.3439418517086D-01  2.114D-04
    3.100000   -1.3630468242652D-01  2.087D-04
    3.125000   -1.3823765082657D-01  2.060D-04
    3.150000   -1.4019294294413D-01  2.033D-04
    3.175000   -1.4217040281774D-01  2.006D-04
    3.200000   -1.4416986594469D-01  1.980D-04
    3.225000   -1.4619115927880D-01  1.953D-04
    3.250000   -1.4823410123293D-01  1.926D-04
    3.275000   -1.5029850168611D-01  1.899D-04
    3.300000   -1.5238416199541D-01  1.872D-04
    3.325000   -1.5449087501265D-01  1.846D-04
    3.350000   -1.5661842510594D-01  1.819D-04
    3.375000   -1.5876658818613D-01  1.793D-04
    3.400000   -1.6093513173821D-01  1.766D-04
    3.425000   -1.6312381485770D-01  1.740D-04
    3.450000   -1.6533238829213D-01  1.714D-04
    3.475000   -1.6756059448745D-01  1.688D-04
    3.500000   -1.6980816763972D-01  1.662D-04
    3.525000   -1.7207483375182D-01  1.636D-04
    3.550000   -1.7436031069532D-01  1.611D-04
    3.575000   -1.7666430827756D-01  1.586D-04
    3.600000   -1.7898652831388D-01  1.561D-04
    3.625000   -1.8132666470514D-01  1.536D-04
    3.650000   -1.8368440352029D-01  1.511D-04
    3.675000   -1.8605942308432D-01  1.487D-04
    3.700000   -1.8845139407134D-01  1.463D-04
    3.725000   -1.9085997960283D-01  1.439D-04
    3.750000   -1.9328483535117D-01  1.415D-04
    3.775000   -1.9572560964832D-01  1.392D-04
    3.800000   -1.9818194359962D-01  1.369D-04
    3.825000   -2.0065347120278D-01  1.346D-04
    3.850000   -2.0313981947196D-01  1.324D-04
    3.875000   -2.0564060856696D-01  1.302D-04
    3.900000   -2.0815545192737D-01  1.281D-04
    3.925000   -2.1068395641180D-01  1.259D-04
    3.950000   -2.1322572244204D-01  1.239D-04
    3.975000   -2.1578034415209D-01  1.218D-04
    4.000000   -2.1834740954205D-01  1.198D-04
    4.025000   -2.2092650063681D-01  1.179D-04
    4.050000   -2.2351719364943D-01  1.159D-04
    4.075000   -2.2611905914917D-01  1.141D-04
    4.100000   -2.2873166223409D-01  1.122D-04
    4.125000   -2.3135456270816D-01  1.105D-04
    4.150000   -2.3398731526272D-01  1.087D-04
    4.175000   -2.3662946966230D-01  1.070D-04
    4.200000   -2.3928057093468D-01  1.054D-04
    4.225000   -2.4194015956498D-01  1.038D-04
    4.250000   -2.4460777169382D-01  1.023D-04
    4.275000   -2.4728293931943D-01  1.008D-04
    4.300000   -2.4996519050347D-01  9.934D-05
    4.325000   -2.5265404958056D-01  9.795D-05
    4.350000   -2.5534903737138D-01  9.661D-05
    4.375000   -2.5804967139914D-01  9.531D-05
    4.400000   -2.6075546610943D-01  9.407D-05
    4.425000   -2.6346593309311D-01  9.288D-05
    4.450000   -2.6618058131233D-01  9.173D-05
    4.475000   -2.6889891732933D-01  9.064D-05
    4.500000   -2.7162044553802D-01  8.960D-05
    4.525000   -2.7434466839810D-01  8.860D-05
    4.550000   -2.7707108667162D-01  8.765D-05
    4.575000   -2.7979919966173D-01  8.675D-05
    4.600000   -2.8252850545358D-01  8.589D-05
    4.625000   -2.8525850115710D-01  8.508D-05
    4.650000   -2.8798868315152D-01  8.431D-05
    4.675000   -2.9071854733148D-01  8.358D-05
    4.700000   -2.9344758935451D-01  8.290D-05
    4.725000   -2.9617530488974D-01  8.225D-05
    4.750000   -2.9890118986754D-01  8.165D-05
    4.775000   -3.0162474073013D-01  8.108D-05
    4.800000   -3.0434545468270D-01  8.054D-05
    4.825000   -3.0706282994506D-01  8.004D-05
    4.850000   -3.0977636600346D-01  7.958D-05
    4.875000   -3.1248556386251D-01  7.914D-05
    4.900000   -3.1518992629692D-01  7.874D-05
    4.925000   -3.1788895810291D-01  7.836D-05
    4.950000   -3.2058216634896D-01  7.801D-05
    4.975000   -3.2326906062594D-01  7.768D-05
    5.000000   -3.2594915329608D-01  7.737D-05
    5.025000   -3.2862195974090D-01  7.709D-05
    5.050000   -3.3128699860764D-01  7.682D-05
    5.075000   -3.3394379205408D-01  7.657D-05
    5.100000   -3.3659186599162D-01  7.634D-05
    5.125000   -3.3923075032618D-01  7.612D-05
    5.150000   -3.4185997919696D-01  7.592D-05
    5.175000   -3.4447909121265D-01  7.572D-05
    5.200000   -3.4708762968507D-01  7.553D-05
    5.225000   -3.4968514285975D-01  7.535D-05
    5.250000   -3.5227118414362D-01  7.518D-05
    5.275000   -3.5484531232917D-01  7.501D-05
    5.300000   -3.5740709181528D-01  7.485D-05
    5.325000   -3.5995609282423D-01  7.469D-05
    5.350000   -3.6249189161478D-01  7.452D-05
    5.375000   -3.6501407069118D-01  7.436D-05
    5.400000   -3.6752221900780D-01  7.419D-05
    5.425000   -3.7001593216928D-01  7.403D-05
    5.450000   -3.7249481262596D-01  7.385D-05
    5.475000   -3.7495846986437D-01  7.367D-05
    5.500000   -3.7740652059273D-01  7.349D-05
    5.525000   -3.7983858892109D-01  7.329D-05
    5.550000   -3.8225430653608D-01  7.309D-05
    5.575000   -3.8465331287008D-01  7.288D-05
    5.600000   -3.8703525526459D-01  7.265D-05
    5.625000   -3.8939978912761D-01  7.242D-05
    5.650000   -3.9174657808510D-01  7.217D-05
    5.675000   -3.9407529412603D-01  7.190D-05
    5.700000   -3.9638561774118D-01  7.163D-05
    5.725000   -3.9867723805537D-01  7.133D-05
    5.750000   -4.0094985295313D-01  7.102D-05
    5.775000   -4.0320316919753D-01  7.070D-05
    5.800000   -4.0543690254221D-01  7.035D-05
    5.825000   -4.0765077783642D-01  6.999D-05
    5.850000   -4.0984452912302D-01  6.961D-05
    5.875000   -4.1201789972926D-01  6.921D-05
    5.900000   -4.1417064235044D-01  6.879D-05
    5.925000   -4.1630251912613D-01  6.835D-05
    5.950000   -4.1841330170916D-01  6.789D-05
    5.975000   -4.2050277132707D-01  6.741D-05
    6.000000   -4.2257071883616D-01  6.690D-05
    6.025000   -4.2461694476804D-01  6.637D-05
    6.050000   -4.2664125936863D-01  6.582D-05
    6.075000   -4.2864348262958D-01  6.525D-05
    6.100000   -4.3062344431225D-01  6.465D-05
    6.125000   -4.3258098396403D-01  6.404D-05
    6.150000   -4.3451595092713D-01  6.339D-05
    6.175000   -4.3642820433994D-01  6.273D-05
    6.200000   -4.3831761313081D-01  6.204D-05
    6.225000   -4.4018405600443D-01  6.133D-05
    6.250000   -4.4202742142078D-01  6.060D-05
    6.275000   -4.4384760756679D-01  5.984D-05
    6.300000   -4.4564452232070D-01  5.907D-05
    6.325000   -4.4741808320923D-01  5.827D-05
    6.350000   -4.4916821735765D-01  5.745D-05
    6.375000   -4.5089486143287D-01  5.661D-05
    6.400000   -4.5259796157955D-01  5.576D-05
    6.425000   -4.5427747334953D-01  5.488D-05
    6.450000   -4.5593336162453D-01  5.399D-05
    6.475000   -4.5756560053228D-01  5.309D-05
    6.500000   -4.5917417335637D-01  5.217D-05
    6.525000   -4.6075907243970D-01  5.124D-05
    6.550000   -4.6232029908198D-01  5.030D-05
    6.575000   -4.6385786343118D-01  4.935D-05
    6.600000   -4.6537178436928D-01  4.840D-05
    6.625000   -4.6686208939240D-01  4.745D-05
    6.650000   -4.6832881448553D-01  4.651D-05
    6.675000   -4.6977200399199D-01  4.557D-05
    6.700000   -4.7119171047795D-01  4.464D-05
    6.725000   -4.7258799459202D-01  4.372D-05
    6.750000   -4.7396092492028D-01  4.283D-05
    6.775000   -4.7531057783678D-01  4.196D-05
    6.800000   -4.7663703734996D-01  4.113D-05
    6.825000   -4.7794039494497D-01  4.033D-05
    6.850000   -4.7922074942222D-01  3.959D-05
    6.875000   -4.8047820673240D-01  3.890D-05
    6.900000   -4.8171287980812D-01  3.827D-05
    6.925000   -4.8292488839245D-01  3.771D-05
    6.950000   -4.8411435886456D-01  3.724D-05
    6.975000   -4.8528142406271D-01  3.686D-05
    7.000000   -4.8642622310479D-01  3.657D-05
    7.025000   -4.8754890120663D-01  3.639D-05
    7.050000   -4.8864960949839D-01  3.632D-05
    7.075000   -4.8972850483913D-01  3.638D-05
    7.100000   -4.9078574962988D-01  3.656D-05
    7.125000   -4.9182151162542D-01  3.687D-05
    7.150000   -4.9283596374496D-01  3.731D-05
    7.175000   -4.9382928388198D-01  3.788D-05
    7.200000   -4.9480165471342D-01  3.859D-05
    7.225000   -4.9575326350843D-01  3.942D-05
    7.250000   -4.9668430193698D-01  4.038D-05
    7.275000   -4.9759496587837D-01  4.147D-05
    7.300000   -4.9848545523002D-01  4.267D-05
    7.325000   -4.9935597371665D-01  4.398D-05
    7.350000   -5.0020672870006D-01  4.540D-05
    7.375000   -5.0103793098970D-01  4.692D-05
    7.400000   -5.0184979465424D-01  4.853D-05
    7.425000   -5.0264253683429D-01  5.023D-05
    7.450000   -5.0341637755651D-01  5.202D-05
    7.475000   -5.0417153954918D-01  5.388D-05
    7.500000   -5.0490824805949D-01  5.581D-05
    7.525000   -5.0562673067264D-01  5.781D-05
    7.550000   -5.0632721713302D-01  5.988D-05
    7.575000   -5.0700993916742D-01  6.200D-05
    7.600000   -5.0767513031062D-01  6.417D-05
    7.625000   -5.0832302573336D-01  6.639D-05
    7.650000   -5.0895386207285D-01  6.866D-05
    7.675000   -5.0956787726602D-01  7.098D-05
    7.700000   -5.1016531038547D-01  7.333D-05
    7.725000   -5.1074640147837D-01  7.572D-05
    7.750000   -5.1131139140838D-01  7.815D-05
    7.775000   -5.1186052170057D-01  8.060D-05
    7.800000   -5.1239403438965D-01  8.309D-05
    7.825000   -5.1291217187138D-01  8.560D-05
    7.850000   -5.1341517675733D-01  8.814D-05
    7.875000   -5.1390329173308D-01  9.070D-05
    7.900000   -5.1437675941984D-01  9.328D-05
    7.925000   -5.1483582223969D-01  9.588D-05
    7.950000   -5.1528072228426D-01  9.849D-05
    7.975000   -5.1571170118717D-01  1.011D-04
    8.000000   -5.1612900000000D-01  1.038D-04
    8.025000   -5.1653285907205D-01  1.064D-04
    8.050000   -5.1692351793376D-01  1.091D-04
    8.075000   -5.1730121518383D-01  1.118D-04
    8.100000   -5.1766618838016D-01  1.145D-04
    8.125000   -5.1801867393449D-01  1.171D-04
    8.150000   -5.1835890701078D-01  1.198D-04
    8.175000   -5.1868712142743D-01  1.225D-04
    8.200000   -5.1900354956310D-01  1.252D-04
    8.225000   -5.1930842226639D-01  1.279D-04
    8.250000   -5.1960196876919D-01  1.306D-04
    8.275000   -5.1988441660370D-01  1.333D-04
    8.300000   -5.2015599152314D-01  1.360D-04
    8.325000   -5.2041691742612D-01  1.387D-04
    8.350000   -5.2066741628453D-01  1.414D-04
    8.375000   -5.2090770807514D-01  1.441D-04
    8.400000   -5.2113801071456D-01  1.468D-04
    8.425000   -5.2135853999783D-01  1.494D-04
    8.450000   -5.2156950954030D-01  1.521D-04
    8.475000   -5.2177113072307D-01  1.547D-04
    8.500000   -5.2196361264157D-01  1.574D-04
    8.525000   -5.2214716205757D-01  1.600D-04
    8.550000   -5.2232198335430D-01  1.626D-04
    8.575000   -5.2248827849482D-01  1.652D-04
    8.600000   -5.2264624698340D-01  1.678D-04
    8.625000   -5.2279608583000D-01  1.704D-04
    8.650000   -5.2293798951767D-01  1.730D-04
    8.675000   -5.2307214997286D-01  1.755D-04
    8.700000   -5.2319875653859D-01  1.780D-04
    8.725000   -5.2331799595035D-01  1.805D-04
    8.750000   -5.2343005231471D-01  1.830D-04
    8.775000   -5.2353510709049D-01  1.855D-04
    8.800000   -5.2363333907262D-01  1.880D-04
    8.825000   -5.2372492437831D-01  1.904D-04
    8.850000   -5.2381003643571D-01  1.928D-04
    8.875000   -5.2388884597492D-01  1.952D-04
    8.900000   -5.2396152102117D-01  1.976D-04
    8.925000   -5.2402822689028D-01  1.999D-04
    8.950000   -5.2408912618617D-01  2.023D-04
    8.975000   -5.2414437880041D-01  2.046D-04
    9.000000   -5.2419414191374D-01  2.069D-04
    9.025000   -5.2423856999949D-01  2.091D-04
    9.050000   -5.2427781482884D-01  2.113D-04
    9.075000   -5.2431202547775D-01  2.136D-04
    9.100000   -5.2434134833567D-01  2.157D-04
    9.125000   -5.2436592711575D-01  2.179D-04
    9.150000   -5.2438590286670D-01  2.200D-04
    9.175000   -5.2440141398602D-01  2.221D-04
    9.200000   -5.2441259623471D-01  2.242D-04
    9.225000   -5.2441958275325D-01  2.263D-04
    9.250000   -5.2442250407892D-01  2.283D-04
    9.275000   -5.2442148816427D-01  2.303D-04
    9.300000   -5.2441666039676D-01  2.323D-04
    9.325000   -5.2440814361949D-01  2.342D-04
    9.350000   -5.2439605815294D-01  2.361D-04
    9.375000   -5.2438052181769D-01  2.380D-04
    9.400000   -5.2436164995802D-01  2.399D-04
    9.425000   -5.2433955546638D-01  2.417D-04
    9.450000   -5.2431434880869D-01  2.435D-04
    9.475000   -5.2428613805026D-01  2.453D-04
    9.500000   -5.2425502888257D-01  2.470D-04
    9.525000   -5.2422112465056D-01  2.488D-04
    9.550000   -5.2418452638055D-01  2.504D-04
    9.575000   -5.2414533280872D-01  2.521D-04
    9.600000   -5.2410364041007D-01  2.537D-04
    9.625000   -5.2405954342780D-01  2.553D-04
    9.650000   -5.2401313390317D-01  2.569D-04
    9.675000   -5.2396450170564D-01  2.585D-04
    9.700000   -5.2391373456339D-01  2.600D-04
    9.725000   -5.2386091809413D-01  2.615D-04
    9.750000   -5.2380613583607D-01  2.629D-04
    9.775000   -5.2374946927924D-01  2.643D-04
    9.800000   -5.2369099789686D-01  2.657D-04
    9.825000   -5.2363079917690D-01  2.671D-04
    9.850000   -5.2356894865376D-01  2.684D-04
    9.875000   -5.2350551994001D-01  2.698D-04
    9.900000   -5.2344058475818D-01  2.710D-04
    9.925000   -5.2337421297253D-01  2.723D-04
    9.950000   -5.2330647262091D-01  2.735D-04
    9.975000   -5.2323742994649D-01  2.747D-04
   10.000000   -5.2316714942943D-01  2.759D-04
   10.025000   -5.2309569381855D-01  2.770D-04
   10.050000   -5.2302312416281D-01  2.781D-04
   10.075000   -5.2294949984268D-01  2.792D-04
   10.100000   -5.2287487860141D-01  2.803D-04
   10.125000   -5.2279931657604D-01  2.813D-04
   10.150000   -5.2272286832830D-01  2.823D-04
   10.175000   -5.2264558687532D-01  2.833D-04
   10.200000   -5.2256752371999D-01  2.842D-04
   10.225000   -5.2248872888127D-01  2.851D-04
   10.250000   -5.2240925092408D-01  2.860D-04
   10.275000   -5.2232913698906D-01  2.869D-04
   10.300000   -5.2224843282195D-01  2.877D-04
   10.325000   -5.2216718280274D-01  2.886D-04
   10.350000   -5.2208542997451D-01  2.893D-04
   10.375000   -5.2200321607197D-01  2.901D-04
   10.400000   -5.2192058154964D-01  2.908D-04
   10.425000   -5.2183756560975D-01  2.916D-04
   10.450000   -5.2175420622980D-01  2.922D-04
   10.475000   -5.2167054018974D-01  2.929D-04
   10.500000   -5.2158660309883D-01  2.935D-04
   10.525000   -5.2150242942215D-01  2.941D-04
   10.550000   -5.2141805250675D-01  2.947D-04
   10.575000   -5.2133350460739D-01  2.953D-04
   10.600000   -5.2124881691199D-01  2.958D-04
   10.625000   -5.2116401956666D-01  2.963D-04
   10.650000   -5.2107914170031D-01  2.968D-04
   10.675000   -5.2099421144900D-01  2.973D-04
   10.700000   -5.2090925597980D-01  2.978D-04
   10.725000   -5.2082430151432D-01  2.982D-04
   10.750000   -5.2073937335186D-01  2.986D-04
   10.775000   -5.2065449589214D-01  2.990D-04
   10.800000   -5.2056969265768D-01  2.993D-04
   10.825000   -5.2048498631581D-01  2.996D-04
   10.850000   -5.2040039870023D-01  3.000D-04
   10.875000   -5.2031595083227D-01  3.003D-04
   10.900000   -5.2023166294168D-01  3.005D-04
   10.925000   -5.2014755448715D-01  3.008D-04
   10.950000   -5.2006364417633D-01  3.010D-04
   10.975000   -5.1997994998557D-01  3.012D-04
   11.000000   -5.1989648917921D-01  3.014D-04
   11.025000   -5.1981327832858D-01  3.016D-04
   11.050000   -5.1973033333054D-01  3.017D-04
   11.075000   -5.1964766942573D-01  3.019D-04
   11.100000   -5.1956530121640D-01  3.020D-04
   11.125000   -5.1948324268390D-01  3.021D-04
   11.150000   -5.1940150720585D-01  3.022D-04
   11.175000   -5.1932010757285D-01  3.022D-04
   11.200000   -5.1923905600499D-01  3.023D-04
   11.225000   -5.1915836416787D-01  3.023D-04
   11.250000   -5.1907804318837D-01  3.023D-04
   11.275000   -5.1899810367005D-01  3.023D-04
   11.300000   -5.1891855570820D-01  3.023D-04
   11.325000   -5.1883940890458D-01  3.023D-04
   11.350000   -5.1876067238184D-01  3.022D-04
   11.375000   -5.1868235479762D-01  3.021D-04
   11.400000   -5.1860446435826D-01  3.020D-04
   11.425000   -5.1852700883235D-01  3.019D-04
   11.450000   -5.1844999556379D-01  3.018D-04
   11.475000   -5.1837343148470D-01  3.017D-04
   11.500000   -5.1829732312791D-01  3.016D-04
   11.525000   -5.1822167663928D-01  3.014D-04
   11.550000   -5.1814649778959D-01  3.012D-04
   11.575000   -5.1807179198630D-01  3.010D-04
   11.600000   -5.1799756428484D-01  3.008D-04
   11.625000   -5.1792381939984D-01  3.006D-04
   11.650000   -5.1785056171591D-01  3.004D-04
   11.675000   -5.1777779529825D-01  3.002D-04
   11.700000   -5.1770552390298D-01  2.999D-04
   11.725000   -5.1763375098718D-01  2.996D-04
   11.750000   -5.1756247971873D-01  2.994D-04
   11.775000   -5.1749171298588D-01  2.991D-04
   11.800000   -5.1742145340654D-01  2.988D-04
   11.825000   -5.1735170333742D-01  2.985D-04
   11.850000   -5.1728246488281D-01  2.982D-04
   11.875000   -5.1721373990329D-01  2.978D-04
   11.900000   -5.1714553002407D-01  2.975D-04
   11.925000   -5.1707783664318D-01  2.971D-04
   11.950000   -5.1701066093944D-01  2.968D-04
   11.975000   -5.1694400388023D-01  2.964D-04
   12.000000   -5.1687786622901D-01  2.960D-04
   12.025000   -5.1681224855266D-01  2.956D-04
   12.050000   -5.1674715122868D-01  2.952D-04
   12.075000   -5.1668257445206D-01  2.948D-04
   12.100000   -5.1661851824210D-01  2.944D-04
   12.125000   -5.1655498244899D-01  2.940D-04
   12.150000   -5.1649196676015D-01  2.935D-04
   12.175000   -5.1642947070652D-01  2.931D-04
   12.200000   -5.1636749366853D-01  2.926D-04
   12.225000   -5.1630603488205D-01  2.922D-04
   12.250000   -5.1624509344402D-01  2.917D-04
   12.275000   -5.1618466831806D-01  2.912D-04
   12.300000   -5.1612475833983D-01  2.907D-04
   12.325000   -5.1606536222225D-01  2.902D-04
   12.350000   -5.1600647856060D-01  2.897D-04
   12.375000   -5.1594810583747D-01  2.892D-04
   12.400000   -5.1589024242748D-01  2.887D-04
   12.425000   -5.1583288660204D-01  2.882D-04
   12.450000   -5.1577603653374D-01  2.877D-04
   12.475000   -5.1571969030082D-01  2.872D-04
   12.500000   -5.1566384589138D-01  2.866D-04
   12.525000   -5.1560850120749D-01  2.861D-04
   12.550000   -5.1555365406919D-01  2.855D-04
   12.575000   -5.1549930221839D-01  2.850D-04
   12.600000   -5.1544544332260D-01  2.844D-04
   12.625000   -5.1539207497854D-01  2.839D-04
   12.650000   -5.1533919471574D-01  2.833D-04
   12.675000   -5.1528679999990D-01  2.827D-04
   12.700000   -5.1523488823620D-01  2.821D-04
   12.725000   -5.1518345677254D-01  2.816D-04
   12.750000   -5.1513250290263D-01  2.810D-04
   12.775000   -5.1508202386898D-01  2.804D-04
   12.800000   -5.1503201686582D-01  2.798D-04
   12.825000   -5.1498247904193D-01  2.792D-04
   12.850000   -5.1493340750332D-01  2.786D-04
   12.875000   -5.1488479931593D-01  2.780D-04
   12.900000   -5.1483665150813D-01  2.774D-04
   12.925000   -5.1478896107318D-01  2.768D-04
   12.950000   -5.1474172497166D-01  2.761D-04
   12.975000   -5.1469494013374D-01  2.755D-04
   13.000000   -5.1464860346137D-01  2.749D-04
   13.025000   -5.1460271183052D-01  2.743D-04
   13.050000   -5.1455726209316D-01  2.736D-04
   13.075000   -5.1451225107934D-01  2.730D-04
   13.100000   -5.1446767559907D-01  2.724D-04
   13.125000   -5.1442353244422D-01  2.717D-04
   13.150000   -5.1437981839030D-01  2.711D-04
   13.175000   -5.1433653019824D-01  2.705D-04
   13.200000   -5.1429366461599D-01  2.698D-04
   13.225000   -5.1425121838023D-01  2.692D-04
   13.250000   -5.1420918821784D-01  2.685D-04
   13.275000   -5.1416757084746D-01  2.679D-04
   13.300000   -5.1412636298089D-01  2.672D-04
   13.325000   -5.1408556132454D-01  2.666D-04
   13.350000   -5.1404516258070D-01  2.659D-04
   13.375000   -5.1400516344887D-01  2.653D-04
   13.400000   -5.1396556062700D-01  2.646D-04
   13.425000   -5.1392635081267D-01  2.640D-04
   13.450000   -5.1388753070422D-01  2.633D-04
   13.475000   -5.1384909700190D-01  2.626D-04
   13.500000   -5.1381104640885D-01  2.620D-04
   13.525000   -5.1377337563218D-01  2.613D-04
   13.550000   -5.1373608138394D-01  2.606D-04
   13.575000   -5.1369916038200D-01  2.600D-04
   13.600000   -5.1366260935100D-01  2.593D-04
   13.625000   -5.1362642502316D-01  2.587D-04
   13.650000   -5.1359060413916D-01  2.580D-04
   13.675000   -5.1355514344888D-01  2.573D-04
   13.700000   -5.1352003971214D-01  2.567D-04
   13.725000   -5.1348528969947D-01  2.560D-04
   13.750000   -5.1345089019276D-01  2.553D-04
   13.775000   -5.1341683798592D-01  2.547D-04
   13.800000   -5.1338312988551D-01  2.540D-04
   13.825000   -5.1334976271133D-01  2.533D-04
   13.850000   -5.1331673329700D-01  2.527D-04
   13.875000   -5.1328403849049D-01  2.520D-04
   13.900000   -5.1325167515464D-01  2.513D-04
   13.925000   -5.1321964016763D-01  2.507D-04
   13.950000   -5.1318793042349D-01  2.500D-04
   13.975000   -5.1315654283249D-01  2.493D-04
   14.000000   -5.1312547432156D-01  2.487D-04
   14.025000   -5.1309472183474D-01  2.480D-04
   14.050000   -5.1306428233347D-01  2.474D-04
   14.075000   -5.1303415279702D-01  2.467D-04
   14.100000   -5.1300433022276D-01  2.460D-04
   14.125000   -5.1297481162652D-01  2.454D-04
   14.150000   -5.1294559404283D-01  2.447D-04
   14.175000   -5.1291667452525D-01  2.441D-04
   14.200000   -5.1288805014659D-01  2.434D-04
   14.225000   -5.1285971799917D-01  2.427D-04
   14.250000   -5.1283167519503D-01  2.421D-04
   14.275000   -5.1280391886612D-01  2.414D-04
   14.300000   -5.1277644616455D-01  2.408D-04
   14.325000   -5.1274925426271D-01  2.401D-04
   14.350000   -5.1272234035346D-01  2.395D-04
   14.375000   -5.1269570165025D-01  2.388D-04
   14.400000   -5.1266933538732D-01  2.382D-04
   14.425000   -5.1264323881975D-01  2.375D-04
   14.450000   -5.1261740922362D-01  2.369D-04
   14.475000   -5.1259184389607D-01  2.362D-04
   14.500000   -5.1256654015542D-01  2.356D-04
   14.525000   -5.1254149534124D-01  2.349D-04
   14.550000   -5.1251670681441D-01  2.343D-04
   14.575000   -5.1249217195715D-01  2.337D-04
   14.600000   -5.1246788817314D-01  2.330D-04
   14.625000   -5.1244385288746D-01  2.324D-04
   14.650000   -5.1242006354668D-01  2.318D-04
   14.675000   -5.1239651761887D-01  2.311D-04
   14.700000   -5.1237321259360D-01  2.305D-04
   14.725000   -5.1235014598193D-01  2.299D-04
   14.750000   -5.1232731531645D-01  2.292D-04
   14.775000   -5.1230471815119D-01  2.286D-04
   14.800000   -5.1228235206169D-01  2.280D-04
   14.825000   -5.1226021464489D-01  2.274D-04
   14.850000   -5.1223830351915D-01  2.268D-04
   14.875000   -5.1221661632421D-01  2.261D-04
   14.900000   -5.1219515072109D-01  2.255D-04
   14.925000   -5.1217390439209D-01  2.249D-04
   14.950000   -5.1215287504074D-01  2.243D-04
   14.975000   -5.1213206039169D-01  2.237D-04
   15.000000   -5.1211145819066D-01  2.231D-04
   15.025000   -5.1209106620441D-01  2.225D-04
   15.050000   -5.1207088222059D-01  2.219D-04
   15.075000   -5.1205090404772D-01  2.213D-04
   15.100000   -5.1203112951507D-01  2.207D-04
   15.125000   -5.1201155647258D-01  2.201D-04
   15.150000   -5.1199218279078D-01  2.195D-04
   15.175000   -5.1197300636068D-01  2.189D-04
   15.200000   -5.1195402509364D-01  2.183D-04
   15.225000   -5.1193523692135D-01  2.177D-04
   15.250000   -5.1191663979562D-01  2.171D-04
   15.275000   -5.1189823168835D-01  2.165D-04
   15.300000   -5.1188001059138D-01  2.159D-04
   15.325000   -5.1186197451638D-01  2.153D-04
   15.350000   -5.1184412149476D-01  2.148D-04
   15.375000   -5.1182644957749D-01  2.142D-04
   15.400000   -5.1180895683505D-01  2.136D-04
   15.425000   -5.1179164135725D-01  2.130D-04
   15.450000   -5.1177450125314D-01  2.125D-04
   15.475000   -5.1175753465085D-01  2.119D-04
   15.500000   -5.1174073969751D-01  2.113D-04
   15.525000   -5.1172411455906D-01  2.108D-04
   15.550000   -5.1170765742015D-01  2.102D-04
   15.575000   -5.1169136648404D-01  2.097D-04
   15.600000   -5.1167523997237D-01  2.091D-04
   15.625000   -5.1165927612514D-01  2.085D-04
   15.650000   -5.1164347320048D-01  2.080D-04
   15.675000   -5.1162782947456D-01  2.074D-04
   15.700000   -5.1161234324145D-01  2.069D-04
   15.725000   -5.1159701281296D-01  2.063D-04
   15.750000   -5.1158183651850D-01  2.058D-04
   15.775000   -5.1156681270499D-01  2.053D-04
   15.800000   -5.1155193973663D-01  2.047D-04
   15.825000   -5.1153721599484D-01  2.042D-04
   15.850000   -5.1152263987809D-01  2.037D-04
   15.875000   -5.1150820980173D-01  2.031D-04
   15.900000   -5.1149392419788D-01  2.026D-04
   15.925000   -5.1147978151529D-01  2.021D-04
   15.950000   -5.1146578021918D-01  2.015D-04
   15.975000   -5.1145191879109D-01  2.010D-04
   16.000000   -5.1143819572876D-01  2.005D-04
   16.025000   -5.1142460954599D-01  2.000D-04