
variables = "r", "UA(r)", "Uncertainty"
zone T = "State 1 UA(r)  66N09p6q2Rf4_8_C3ReD"

    2.200000    1.3508707171013D-01  2.261D-02
    2.225000    1.3488734337353D-01  2.257D-02
    2.250000    1.3467671532230D-01  2.254D-02
    2.275000    1.3445476900371D-01  2.250D-02
    2.300000    1.3422108027078D-01  2.246D-02
    2.325000    1.3397522002825D-01  2.242D-02
    2.350000    1.3371675493681D-01  2.238D-02
    2.375000    1.3344524817716D-01  2.233D-02
    2.400000    1.3316026027489D-01  2.228D-02
    2.425000    1.3286134998720D-01  2.223D-02
    2.450000    1.3254807525200D-01  2.218D-02
    2.475000    1.3221999419963D-01  2.213D-02
    2.500000    1.3187666622712D-01  2.207D-02
    2.525000    1.3151765313456D-01  2.201D-02
    2.550000    1.3114252032248D-01  2.195D-02
    2.575000    1.3075083804900D-01  2.188D-02
    2.600000    1.3034218274475D-01  2.181D-02
    2.625000    1.2991613838312D-01  2.174D-02
    2.650000    1.2947229790289D-01  2.167D-02
    2.675000    1.2901026467961D-01  2.159D-02
    2.700000    1.2852965404156D-01  2.151D-02
    2.725000    1.2803009482547D-01  2.143D-02
    2.750000    1.2751123096659D-01  2.134D-02
    2.775000    1.2697272311688D-01  2.125D-02
    2.800000    1.2641425028485D-01  2.115D-02
    2.825000    1.2583551148948D-01  2.106D-02
    2.850000    1.2523622742031D-01  2.096D-02
    2.875000    1.2461614209519D-01  2.085D-02
    2.900000    1.2397502450665D-01  2.075D-02
    2.925000    1.2331267024706D-01  2.064D-02
    2.950000    1.2262890310277D-01  2.052D-02
    2.975000    1.2192357660661D-01  2.040D-02
    3.000000    1.2119657553807D-01  2.028D-02
    3.025000    1.2044781736004D-01  2.016D-02
    3.050000    1.1967725358105D-01  2.003D-02
    3.075000    1.1888487103181D-01  1.989D-02
    3.100000    1.1807069304472D-01  1.976D-02
    3.125000    1.1723478052570D-01  1.962D-02
    3.150000    1.1637723290726D-01  1.948D-02
    3.175000    1.1549818897285D-01  1.933D-02
    3.200000    1.1459782754263D-01  1.918D-02
    3.225000    1.1367636801144D-01  1.902D-02
    3.250000    1.1273407073095D-01  1.887D-02
    3.275000    1.1177123722832D-01  1.870D-02
    3.300000    1.1078821025510D-01  1.854D-02
    3.325000    1.0978537366114D-01  1.837D-02
    3.350000    1.0876315208931D-01  1.820D-02
    3.375000    1.0772201048840D-01  1.803D-02
    3.400000    1.0666245344282D-01  1.785D-02
    3.425000    1.0558502431899D-01  1.767D-02
    3.450000    1.0449030423013D-01  1.749D-02
    3.475000    1.0337891082235D-01  1.730D-02
    3.500000    1.0225149688648D-01  1.711D-02
    3.525000    1.0110874880176D-01  1.692D-02
    3.550000    9.9951384818657D-02  1.673D-02
    3.575000    9.8780153189711D-02  1.653D-02
    3.600000    9.7595830158446D-02  1.633D-02
    3.625000    9.6399217817759D-02  1.613D-02
    3.650000    9.5191141850174D-02  1.593D-02
    3.675000    9.3972449163449D-02  1.573D-02
    3.700000    9.2744005435806D-02  1.552D-02
    3.725000    9.1506692585804D-02  1.531D-02
    3.750000    9.0261406182406D-02  1.510D-02
    3.775000    8.9009052811187D-02  1.490D-02
    3.800000    8.7750547412841D-02  1.468D-02
    3.825000    8.6486810610212D-02  1.447D-02
    3.850000    8.5218766039945D-02  1.426D-02
    3.875000    8.3947337704596D-02  1.405D-02
    3.900000    8.2673447360585D-02  1.383D-02
    3.925000    8.1398011956823D-02  1.362D-02
    3.950000    8.0121941138099D-02  1.341D-02
    3.975000    7.8846134826514D-02  1.319D-02
    4.000000    7.7571480893252D-02  1.298D-02
    4.025000    7.6298852931988D-02  1.277D-02
    4.050000    7.5029108144060D-02  1.256D-02
    4.075000    7.3763085344399D-02  1.234D-02
    4.100000    7.2501603095947D-02  1.213D-02
    4.125000    7.1245457979065D-02  1.192D-02
    4.150000    6.9995423001142D-02  1.171D-02
    4.175000    6.8752246150390D-02  1.151D-02
    4.200000    6.7516649096538D-02  1.130D-02
    4.225000    6.6289326039944D-02  1.109D-02
    4.250000    6.5070942709482D-02  1.089D-02
    4.275000    6.3862135508455D-02  1.069D-02
    4.300000    6.2663510806750D-02  1.049D-02
    4.325000    6.1475644376472D-02  1.029D-02
    4.350000    6.0299080967435D-02  1.009D-02
    4.375000    5.9134334018072D-02  9.896D-03
    4.400000    5.7981885496614D-02  9.703D-03
    4.425000    5.6842185866800D-02  9.512D-03
    4.450000    5.5715654171807D-02  9.324D-03
    4.475000    5.4602678229697D-02  9.137D-03
    4.500000    5.3503614933307D-02  8.954D-03
    4.525000    5.2418790647242D-02  8.772D-03
    4.550000    5.1348501694479D-02  8.593D-03
    4.575000    5.0293014924943D-02  8.416D-03
    4.600000    4.9252568358431D-02  8.242D-03
    4.625000    4.8227371894265D-02  8.071D-03
    4.650000    4.7217608080156D-02  7.902D-03
    4.675000    4.6223432932922D-02  7.735D-03
    4.700000    4.5244976803892D-02  7.571D-03
    4.725000    4.4282345282061D-02  7.410D-03
    4.750000    4.3335620128364D-02  7.252D-03
    4.775000    4.2404860234695D-02  7.096D-03
    4.800000    4.1490102601682D-02  6.943D-03
    4.825000    4.0591363329529D-02  6.793D-03
    4.850000    3.9708638616621D-02  6.645D-03
    4.875000    3.8841905760960D-02  6.500D-03
    4.900000    3.7991124159853D-02  6.358D-03
    4.925000    3.7156236303677D-02  6.218D-03
    4.950000    3.6337168759890D-02  6.081D-03
    4.975000    3.5533833143839D-02  5.946D-03
    5.000000    3.4746127073273D-02  5.815D-03
    5.025000    3.3973935103807D-02  5.685D-03
    5.050000    3.3217129642913D-02  5.559D-03
    5.075000    3.2475571840359D-02  5.435D-03
    5.100000    3.1749112453276D-02  5.313D-03
    5.125000    3.1037592684368D-02  5.194D-03
    5.150000    3.0340844992004D-02  5.077D-03
    5.175000    2.9658693871222D-02  4.963D-03
    5.200000    2.8990956604873D-02  4.851D-03
    5.225000    2.8337443984387D-02  4.742D-03
    5.250000    2.7697960999795D-02  4.635D-03
    5.275000    2.7072307498871D-02  4.530D-03
    5.300000    2.6460278815383D-02  4.428D-03
    5.325000    2.5861666366612D-02  4.328D-03
    5.350000    2.5276258220426D-02  4.230D-03
    5.375000    2.4703839632298D-02  4.134D-03
    5.400000    2.4144193552789D-02  4.040D-03
    5.425000    2.3597101106085D-02  3.949D-03
    5.450000    2.3062342040253D-02  3.859D-03
    5.475000    2.2539695149969D-02  3.772D-03
    5.500000    2.2028938672496D-02  3.686D-03
    5.525000    2.1529850657759D-02  3.603D-03
    5.550000    2.1042209313392D-02  3.521D-03
    5.575000    2.0565793325652D-02  3.442D-03
    5.600000    2.0100382157122D-02  3.364D-03
    5.625000    1.9645756322140D-02  3.288D-03
    5.650000    1.9201697640891D-02  3.213D-03
    5.675000    1.8767989473106D-02  3.141D-03
    5.700000    1.8344416932296D-02  3.070D-03
    5.725000    1.7930767081462D-02  3.001D-03
    5.750000    1.7526829111186D-02  2.933D-03
    5.775000    1.7132394501013D-02  2.867D-03
    5.800000    1.6747257164994D-02  2.803D-03
    5.825000    1.6371213582266D-02  2.740D-03
    5.850000    1.6004062913497D-02  2.678D-03
    5.875000    1.5645607104011D-02  2.618D-03
    5.900000    1.5295650974389D-02  2.560D-03
    5.925000    1.4954002299297D-02  2.502D-03
    5.950000    1.4620471875282D-02  2.447D-03
    5.975000    1.4294873578243D-02  2.392D-03
    6.000000    1.3977024411244D-02  2.339D-03
    6.025000    1.3666744543336D-02  2.287D-03
    6.050000    1.3363857339987D-02  2.236D-03
    6.075000    1.3068189385730D-02  2.187D-03
    6.100000    1.2779570499590D-02  2.139D-03
    6.125000    1.2497833743815D-02  2.091D-03
    6.150000    1.2222815426439D-02  2.045D-03
    6.175000    1.1954355098149D-02  2.000D-03
    6.200000    1.1692295543917D-02  1.957D-03
    6.225000    1.1436482769832D-02  1.914D-03
    6.250000    1.1186765985545D-02  1.872D-03
    6.275000    1.0942997582699D-02  1.831D-03
    6.300000    1.0705033109727D-02  1.791D-03
    6.325000    1.0472731243346D-02  1.753D-03
    6.350000    1.0245953757075D-02  1.715D-03
    6.375000    1.0024565487073D-02  1.678D-03
    6.400000    9.8084342955860D-03  1.641D-03
    6.425000    9.5974310322640D-03  1.606D-03
    6.450000    9.3914294935913D-03  1.572D-03
    6.475000    9.1903063806682D-03  1.538D-03
    6.500000    8.9939412555525D-03  1.505D-03
    6.525000    8.8022164963629D-03  1.473D-03
    6.550000    8.6150172513303D-03  1.442D-03
    6.575000    8.4322313919682D-03  1.411D-03
    6.600000    8.2537494655226D-03  1.381D-03
    6.625000    8.0794646468477D-03  1.352D-03
    6.650000    7.9092726898463D-03  1.324D-03
    6.675000    7.7430718785970D-03  1.296D-03
    6.700000    7.5807629782867D-03  1.269D-03
    6.725000    7.4222491860532D-03  1.242D-03
    6.750000    7.2674360818353D-03  1.216D-03
    6.775000    7.1162315793194D-03  1.191D-03
    6.800000    6.9685458770641D-03  1.166D-03
    6.825000    6.8242914098761D-03  1.142D-03
    6.850000    6.6833828005050D-03  1.118D-03
    6.875000    6.5457368117163D-03  1.095D-03
    6.900000    6.4112722987994D-03  1.073D-03
    6.925000    6.2799101625573D-03  1.051D-03
    6.950000    6.1515733028237D-03  1.029D-03
    6.975000    6.0261865725448D-03  1.008D-03
    7.000000    5.9036767324624D-03  9.879D-04
    7.025000    5.7839724064265D-03  9.679D-04
    7.050000    5.6670040373655D-03  9.483D-04
    7.075000    5.5527038439361D-03  9.292D-04
    7.100000    5.4410057778721D-03  9.105D-04
    7.125000    5.3318454820503D-03  8.923D-04
    7.150000    5.2251602492850D-03  8.744D-04
    7.175000    5.1208889818633D-03  8.570D-04
    7.200000    5.0189721518305D-03  8.399D-04
    7.225000    4.9193517620302D-03  8.232D-04
    7.250000    4.8219713079057D-03  8.069D-04
    7.275000    4.7267757400633D-03  7.910D-04
    7.300000    4.6337114276000D-03  7.754D-04
    7.325000    4.5427261221937D-03  7.602D-04
    7.350000    4.4537689229551D-03  7.453D-04
    7.375000    4.3667902420365D-03  7.308D-04
    7.400000    4.2817417709943D-03  7.165D-04
    7.425000    4.1985764478988D-03  7.026D-04
    7.450000    4.1172484251859D-03  6.890D-04
    7.475000    4.0377130382414D-03  6.757D-04
    7.500000    3.9599267747126D-03  6.627D-04
    7.525000    3.8838472445362D-03  6.499D-04
    7.550000    3.8094331506739D-03  6.375D-04
    7.575000    3.7366442605466D-03  6.253D-04
    7.600000    3.6654413781557D-03  6.134D-04
    7.625000    3.5957863168822D-03  6.017D-04
    7.650000    3.5276418729509D-03  5.903D-04
    7.675000    3.4609717995506D-03  5.792D-04
    7.700000    3.3957407815965D-03  5.683D-04
    7.725000    3.3319144111247D-03  5.576D-04
    7.750000    3.2694591633066D-03  5.471D-04
    7.775000    3.2083423730710D-03  5.369D-04
    7.800000    3.1485322123217D-03  5.269D-04
    7.825000    3.0899976677396D-03  5.171D-04
    7.850000    3.0327085191550D-03  5.075D-04
    7.875000    2.9766353184814D-03  4.981D-04
    7.900000    2.9217493691948D-03  4.889D-04
    7.925000    2.8680227063502D-03  4.799D-04
    7.950000    2.8154280771203D-03  4.711D-04
    7.975000    2.7639389218468D-03  4.625D-04
    8.000000    2.7135293555912D-03  4.541D-04
    8.025000    2.6641741501746D-03  4.458D-04
    8.050000    2.6158487166932D-03  4.377D-04
    8.075000    2.5685290885008D-03  4.298D-04
    8.100000    2.5221919046444D-03  4.221D-04
    8.125000    2.4768143937437D-03  4.145D-04
    8.150000    2.4323743583029D-03  4.070D-04
    8.175000    2.3888501594444D-03  3.998D-04
    8.200000    2.3462207020531D-03  3.926D-04
    8.225000    2.3044654203220D-03  3.856D-04
    8.250000    2.2635642636886D-03  3.788D-04
    8.275000    2.2234976831519D-03  3.721D-04
    8.300000    2.1842466179598D-03  3.655D-04
    8.325000    2.1457924826585D-03  3.591D-04
    8.350000    2.1081171544939D-03  3.528D-04
    8.375000    2.0712029611551D-03  3.466D-04
    8.400000    2.0350326688525D-03  3.406D-04
    8.425000    1.9995894707198D-03  3.346D-04
    8.450000    1.9648569755334D-03  3.288D-04
    8.475000    1.9308191967389D-03  3.231D-04
    8.500000    1.8974605417780D-03  3.175D-04
    8.525000    1.8647658017060D-03  3.121D-04
    8.550000    1.8327201410941D-03  3.067D-04
    8.575000    1.8013090882072D-03  3.014D-04
    8.600000    1.7705185254503D-03  2.963D-04
    8.625000    1.7403346800768D-03  2.912D-04
    8.650000    1.7107441151502D-03  2.863D-04
    8.675000    1.6817337207533D-03  2.814D-04
    8.700000    1.6532907054384D-03  2.767D-04
    8.725000    1.6254025879106D-03  2.720D-04
    8.750000    1.5980571889387D-03  2.674D-04
    8.775000    1.5712426234878D-03  2.629D-04
    8.800000    1.5449472930660D-03  2.585D-04
    8.825000    1.5191598782811D-03  2.542D-04
    8.850000    1.4938693316002D-03  2.500D-04
    8.875000    1.4690648703067D-03  2.458D-04
    8.900000    1.4447359696500D-03  2.418D-04
    8.925000    1.4208723561814D-03  2.378D-04
    8.950000    1.3974640012726D-03  2.339D-04
    8.975000    1.3745011148094D-03  2.300D-04
    9.000000    1.3519741390581D-03  2.262D-04
    9.025000    1.3298737426984D-03  2.225D-04
    9.050000    1.3081908150184D-03  2.189D-04
    9.075000    1.2869164602670D-03  2.154D-04
    9.100000    1.2660419921605D-03  2.119D-04
    9.125000    1.2455589285366D-03  2.084D-04
    9.150000    1.2254589861548D-03  2.051D-04
    9.175000    1.2057340756361D-03  2.018D-04
    9.200000    1.1863762965407D-03  1.985D-04
    9.225000    1.1673779325775D-03  1.954D-04
    9.250000    1.1487314469438D-03  1.922D-04
    9.275000    1.1304294777898D-03  1.892D-04
    9.300000    1.1124648338060D-03  1.862D-04
    9.325000    1.0948304899285D-03  1.832D-04
    9.350000    1.0775195831598D-03  1.803D-04
    9.375000    1.0605254085023D-03  1.775D-04
    9.400000    1.0438414150000D-03  1.747D-04
    9.425000    1.0274612018863D-03  1.719D-04
    9.450000    1.0113785148355D-03  1.692D-04
    9.475000    9.9558724231286D-04  1.666D-04
    9.500000    9.8008141202363D-04  1.640D-04
    9.525000    9.6485518745542D-04  1.615D-04
    9.550000    9.4990286451303D-04  1.590D-04
    9.575000    9.3521886824252D-04  1.565D-04
    9.600000    9.2079774964211D-04  1.541D-04
    9.625000    9.0663418255757D-04  1.517D-04
    9.650000    8.9272296065966D-04  1.494D-04
    9.675000    8.7905899450140D-04  1.471D-04
    9.700000    8.6563730865292D-04  1.449D-04
    9.725000    8.5245303891171D-04  1.427D-04
    9.750000    8.3950142958626D-04  1.405D-04
    9.775000    8.2677783085093D-04  1.384D-04
    9.800000    8.1427769617020D-04  1.363D-04
    9.825000    8.0199657979032D-04  1.342D-04
    9.850000    7.8993013429645D-04  1.322D-04
    9.875000    7.7807410823361D-04  1.302D-04
    9.900000    7.6642434378948D-04  1.283D-04
    9.925000    7.5497677453761D-04  1.263D-04
    9.950000    7.4372742323913D-04  1.245D-04
    9.975000    7.3267239970141D-04  1.226D-04
   10.000000    7.2180789869230D-04  1.208D-04
   10.025000    7.1113019790809D-04  1.190D-04
   10.050000    7.0063565599400D-04  1.172D-04
   10.075000    6.9032071061563D-04  1.155D-04
   10.100000    6.8018187657999D-04  1.138D-04
   10.125000    6.7021574400473D-04  1.122D-04
   10.150000    6.6041897653440D-04  1.105D-04
   10.175000    6.5078830960222D-04  1.089D-04
   10.200000    6.4132054873629D-04  1.073D-04
   10.225000    6.3201256790907D-04  1.058D-04
   10.250000    6.2286130792872D-04  1.042D-04
   10.275000    6.1386377487148D-04  1.027D-04
   10.300000    6.0501703855369D-04  1.012D-04
   10.325000    5.9631823104255D-04  9.979D-05
   10.350000    5.8776454520462D-04  9.836D-05
   10.375000    5.7935323329077D-04  9.695D-05
   10.400000    5.7108160555691D-04  9.557D-05
   10.425000    5.6294702891942D-04  9.421D-05
   10.450000    5.5494692564422D-04  9.287D-05
   10.475000    5.4707877206881D-04  9.155D-05
   10.500000    5.3934009735624D-04  9.026D-05
   10.525000    5.3172848228012D-04  8.898D-05
   10.550000    5.2424155804008D-04  8.773D-05
   10.575000    5.1687700510653D-04  8.650D-05
   10.600000    5.0963255209430D-04  8.528D-05
   10.625000    5.0250597466397D-04  8.409D-05
   10.650000    4.9549509445063D-04  8.292D-05
   10.675000    4.8859777801897D-04  8.176D-05
   10.700000    4.8181193584420D-04  8.063D-05
   10.725000    4.7513552131796D-04  7.951D-05
   10.750000    4.6856652977879D-04  7.841D-05
   10.775000    4.6210299756633D-04  7.733D-05
   10.800000    4.5574300109858D-04  7.627D-05
   10.825000    4.4948465597187D-04  7.522D-05
   10.850000    4.4332611608271D-04  7.419D-05
   10.875000    4.3726557277097D-04  7.317D-05
   10.900000    4.3130125398396D-04  7.218D-05
   10.925000    4.2543142346081D-04  7.119D-05
   10.950000    4.1965437993650D-04  7.023D-05
   10.975000    4.1396845636524D-04  6.928D-05
   11.000000    4.0837201916249D-04  6.834D-05
   11.025000    4.0286346746533D-04  6.742D-05
   11.050000    3.9744123241054D-04  6.651D-05
   11.075000    3.9210377643002D-04  6.562D-05
   11.100000    3.8684959256312D-04  6.474D-05
   11.125000    3.8167720378535D-04  6.387D-05
   11.150000    3.7658516235316D-04  6.302D-05
   11.175000    3.7157204916431D-04  6.218D-05
   11.200000    3.6663647313341D-04  6.135D-05
   11.225000    3.6177707058235D-04  6.054D-05
   11.250000    3.5699250464514D-04  5.974D-05
   11.275000    3.5228146468674D-04  5.895D-05
   11.300000    3.4764266573578D-04  5.818D-05
   11.325000    3.4307484793047D-04  5.741D-05
   11.350000    3.3857677597758D-04  5.666D-05
   11.375000    3.3414723862423D-04  5.592D-05
   11.400000    3.2978504814193D-04  5.519D-05
   11.425000    3.2548903982269D-04  5.447D-05
   11.450000    3.2125807148694D-04  5.376D-05
   11.475000    3.1709102300294D-04  5.306D-05
   11.500000    3.1298679581721D-04  5.238D-05
   11.525000    3.0894431249606D-04  5.170D-05
   11.550000    3.0496251627761D-04  5.103D-05
   11.575000    3.0104037063422D-04  5.038D-05
   11.600000    2.9717685884495D-04  4.973D-05
   11.625000    2.9337098357798D-04  4.909D-05
   11.650000    2.8962176648254D-04  4.847D-05
   11.675000    2.8592824779025D-04  4.785D-05
   11.700000    2.8228948592558D-04  4.724D-05
   11.725000    2.7870455712518D-04  4.664D-05
   11.750000    2.7517255506600D-04  4.605D-05
   11.775000    2.7169259050177D-04  4.547D-05
   11.800000    2.6826379090780D-04  4.489D-05
   11.825000    2.6488530013385D-04  4.433D-05
   11.850000    2.6155627806481D-04  4.377D-05
   11.875000    2.5827590028914D-04  4.322D-05
   11.900000    2.5504335777472D-04  4.268D-05
   11.925000    2.5185785655202D-04  4.215D-05
   11.950000    2.4871861740441D-04  4.162D-05
   11.975000    2.4562487556540D-04  4.110D-05
   12.000000    2.4257588042271D-04  4.059D-05
   12.025000    2.3957089522889D-04  4.009D-05
   12.050000    2.3660919681843D-04  3.960D-05
   12.075000    2.3369007533119D-04  3.911D-05
   12.100000    2.3081283394200D-04  3.863D-05
   12.125000    2.2797678859612D-04  3.815D-05
   12.150000    2.2518126775082D-04  3.768D-05
   12.175000    2.2242561212240D-04  3.722D-05
   12.200000    2.1970917443895D-04  3.677D-05
   12.225000    2.1703131919861D-04  3.632D-05
   12.250000    2.1439142243291D-04  3.588D-05
   12.275000    2.1178887147562D-04  3.544D-05
   12.300000    2.0922306473640D-04  3.501D-05
   12.325000    2.0669341147955D-04  3.459D-05
   12.350000    2.0419933160751D-04  3.417D-05
   12.375000    2.0174025544919D-04  3.376D-05
   12.400000    1.9931562355273D-04  3.335D-05
   12.425000    1.9692488648296D-04  3.295D-05
   12.450000    1.9456750462307D-04  3.256D-05
   12.475000    1.9224294798069D-04  3.217D-05
   12.500000    1.8995069599812D-04  3.179D-05
   12.525000    1.8769023736663D-04  3.141D-05
   12.550000    1.8546106984480D-04  3.104D-05
   12.575000    1.8326270008071D-04  3.067D-05
   12.600000    1.8109464343797D-04  3.031D-05
   12.625000    1.7895642382552D-04  2.995D-05
   12.650000    1.7684757353095D-04  2.959D-05
   12.675000    1.7476763305746D-04  2.925D-05
   12.700000    1.7271615096431D-04  2.890D-05
   12.725000    1.7069268371057D-04  2.856D-05
   12.750000    1.6869679550229D-04  2.823D-05
   12.775000    1.6672805814277D-04  2.790D-05
   12.800000    1.6478605088614D-04  2.758D-05
   12.825000    1.6287036029395D-04  2.726D-05
   12.850000    1.6098058009476D-04  2.694D-05
   12.875000    1.5911631104676D-04  2.663D-05
   12.900000    1.5727716080317D-04  2.632D-05
   12.925000    1.5546274378054D-04  2.602D-05
   12.950000    1.5367268102981D-04  2.572D-05
   12.975000    1.5190660010996D-04  2.542D-05
   13.000000    1.5016413496439D-04  2.513D-05
   13.025000    1.4844492579985D-04  2.484D-05
   13.050000    1.4674861896784D-04  2.456D-05
   13.075000    1.4507486684853D-04  2.428D-05
   13.100000    1.4342332773704D-04  2.400D-05
   13.125000    1.4179366573203D-04  2.373D-05
   13.150000    1.4018555062674D-04  2.346D-05
   13.175000    1.3859865780202D-04  2.319D-05
   13.200000    1.3703266812184D-04  2.293D-05
   13.225000    1.3548726783067D-04  2.267D-05
   13.250000    1.3396214845322D-04  2.242D-05
   13.275000    1.3245700669601D-04  2.217D-05
   13.300000    1.3097154435104D-04  2.192D-05
   13.325000    1.2950546820147D-04  2.167D-05
   13.350000    1.2805848992912D-04  2.143D-05
   13.375000    1.2663032602392D-04  2.119D-05
   13.400000    1.2522069769512D-04  2.095D-05
   13.425000    1.2382933078435D-04  2.072D-05
   13.450000    1.2245595568049D-04  2.049D-05
   13.475000    1.2110030723605D-04  2.027D-05
   13.500000    1.1976212468550D-04  2.004D-05
   13.525000    1.1844115156503D-04  1.982D-05
   13.550000    1.1713713563403D-04  1.960D-05
   13.575000    1.1584982879805D-04  1.939D-05
   13.600000    1.1457898703343D-04  1.917D-05
   13.625000    1.1332437031329D-04  1.896D-05
   13.650000    1.1208574253508D-04  1.876D-05
   13.675000    1.1086287144955D-04  1.855D-05
   13.700000    1.0965552859114D-04  1.835D-05
   13.725000    1.0846348920966D-04  1.815D-05
   13.750000    1.0728653220350D-04  1.795D-05
   13.775000    1.0612444005394D-04  1.776D-05
   13.800000    1.0497699876096D-04  1.757D-05
   13.825000    1.0384399778013D-04  1.738D-05
   13.850000    1.0272522996089D-04  1.719D-05
   13.875000    1.0162049148591D-04  1.701D-05
   13.900000    1.0052958181177D-04  1.682D-05
   13.925000    9.9452303610640D-05  1.664D-05
   13.950000    9.8388462713272D-05  1.646D-05
   13.975000    9.7337868052931D-05  1.629D-05
   14.000000    9.6300331610554D-05  1.612D-05
   14.025000    9.5275668360878D-05  1.594D-05
   14.050000    9.4263696219672D-05  1.577D-05
   14.075000    9.3264235991942D-05  1.561D-05
   14.100000    9.2277111321159D-05  1.544D-05
   14.125000    9.1302148639475D-05  1.528D-05
   14.150000    9.0339177118887D-05  1.512D-05
   14.175000    8.9388028623316D-05  1.496D-05
   14.200000    8.8448537661611D-05  1.480D-05
   14.225000    8.7520541341522D-05  1.465D-05
   14.250000    8.6603879324415D-05  1.449D-05
   14.275000    8.5698393781020D-05  1.434D-05
   14.300000    8.4803929347818D-05  1.419D-05
   14.325000    8.3920333084473D-05  1.404D-05
   14.350000    8.3047454431916D-05  1.390D-05
   14.375000    8.2185145171285D-05  1.375D-05
   14.400000    8.1333259383623D-05  1.361D-05
   14.425000    8.0491653410355D-05  1.347D-05
   14.450000    7.9660185814493D-05  1.333D-05
   14.475000    7.8838717342584D-05  1.319D-05
   14.500000    7.8027110887361D-05  1.306D-05
   14.525000    7.7225231451070D-05  1.292D-05
   14.550000    7.6432946109580D-05  1.279D-05
   14.575000    7.5650123977023D-05  1.266D-05
   14.600000    7.4876636171213D-05  1.253D-05
   14.625000    7.4112355779643D-05  1.240D-05
   14.650000    7.3357157826145D-05  1.228D-05
   14.675000    7.2610919238148D-05  1.215D-05
   14.700000    7.1873518814551D-05  1.203D-05
   14.725000    7.1144837194200D-05  1.191D-05
   14.750000    7.0424756824939D-05  1.179D-05
   14.775000    6.9713161933236D-05  1.167D-05
   14.800000    6.9009938494335D-05  1.155D-05
   14.825000    6.8314974203038D-05  1.143D-05
   14.850000    6.7628158444923D-05  1.132D-05
   14.875000    6.6949382268176D-05  1.120D-05
   14.900000    6.6278538355849D-05  1.109D-05
   14.925000    6.5615520998748D-05  1.098D-05
   14.950000    6.4960226068677D-05  1.087D-05
   14.975000    6.4312550992270D-05  1.076D-05
   15.000000    6.3672394725250D-05  1.066D-05
   15.025000    6.3039657727186D-05  1.055D-05
   15.050000    6.2414241936671D-05  1.044D-05
   15.075000    6.1796050746978D-05  1.034D-05
   15.100000    6.1184988982139D-05  1.024D-05
   15.125000    6.0580962873474D-05  1.014D-05
   15.150000    5.9983880036517D-05  1.004D-05
   15.175000    5.9393649448383D-05  9.939D-06
   15.200000    5.8810181425513D-05  9.842D-06
   15.225000    5.8233387601859D-05  9.745D-06
   15.250000    5.7663180907401D-05  9.650D-06
   15.275000    5.7099475547105D-05  9.555D-06
   15.300000    5.6542186980206D-05  9.462D-06
   15.325000    5.5991231899930D-05  9.370D-06
   15.350000    5.5446528213477D-05  9.279D-06
   15.375000    5.4907995022445D-05  9.189D-06
   15.400000    5.4375552603567D-05  9.099D-06
   15.425000    5.3849122389792D-05  9.011D-06
   15.450000    5.3328626951677D-05  8.924D-06
   15.475000    5.2813989979163D-05  8.838D-06
   15.500000    5.2305136263608D-05  8.753D-06
   15.525000    5.1801991680197D-05  8.669D-06
   15.550000    5.1304483170609D-05  8.586D-06
   15.575000    5.0812538725986D-05  8.503D-06
   15.600000    5.0326087370292D-05  8.422D-06
   15.625000    4.9845059143810D-05  8.341D-06
   15.650000    4.9369385087074D-05  8.262D-06
   15.675000    4.8898997224990D-05  8.183D-06
   15.700000    4.8433828551244D-05  8.105D-06
   15.725000    4.7973813013041D-05  8.028D-06
   15.750000    4.7518885496013D-05  7.952D-06
   15.775000    4.7068981809489D-05  7.877D-06
   15.800000    4.6624038671923D-05  7.802D-06
   15.825000    4.6183993696653D-05  7.729D-06
   15.850000    4.5748785377857D-05  7.656D-06
   15.875000    4.5318353076777D-05  7.584D-06
   15.900000    4.4892637008155D-05  7.513D-06
   15.925000    4.4471578226932D-05  7.442D-06
   15.950000    4.4055118615135D-05  7.372D-06
   15.975000    4.3643200869031D-05  7.303D-06
   16.000000    4.3235768486485D-05  7.235D-06
   16.025000    4.2832765754495D-05  7.168D-06
   16.050000    4.2434137737017D-05  7.101D-06
   16.075000    4.2039830262918D-05  7.035D-06
   16.100000    4.1649789914179D-05  6.970D-06
   16.125000    4.1263964014317D-05  6.905D-06
   16.150000    4.0882300616910D-05  6.841D-06
   16.175000    4.0504748494434D-05  6.778D-06
   16.200000    4.0131257127204D-05  6.716D-06
   16.225000    3.9761776692555D-05  6.654D-06
   16.250000    3.9396258054144D-05  6.593D-06
   16.275000    3.9034652751493D-05  6.532D-06
   16.300000    3.8676912989689D-05  6.472D-06
   16.325000    3.8322991629230D-05  6.413D-06
   16.350000    3.7972842176045D-05  6.355D-06
   16.375000    3.7626418771752D-05  6.297D-06
   16.400000    3.7283676183963D-05  6.239D-06
   16.425000    3.6944569796842D-05  6.182D-06
   16.450000    3.6609055601773D-05  6.126D-06
   16.475000    3.6277090188206D-05  6.071D-06
   16.500000    3.5948630734624D-05  6.016D-06
   16.525000    3.5623634999721D-05  5.961D-06
   16.550000    3.5302061313644D-05  5.908D-06
   16.575000    3.4983868569442D-05  5.854D-06
   16.600000    3.4669016214629D-05  5.802D-06
   16.625000    3.4357464242898D-05  5.750D-06
   16.650000    3.4049173185950D-05  5.698D-06
   16.675000    3.3744104105480D-05  5.647D-06
   16.700000    3.3442218585289D-05  5.596D-06
   16.725000    3.3143478723519D-05  5.546D-06
   16.750000    3.2847847125013D-05  5.497D-06
   16.775000    3.2555286893796D-05  5.448D-06
   16.800000    3.2265761625715D-05  5.399D-06
   16.825000    3.1979235401117D-05  5.352D-06
   16.850000    3.1695672777769D-05  5.304D-06
   16.875000    3.1415038783755D-05  5.257D-06
   16.900000    3.1137298910591D-05  5.211D-06
   16.925000    3.0862419106417D-05  5.165D-06
   16.950000    3.0590365769267D-05  5.119D-06
   16.975000    3.0321105740507D-05  5.074D-06
   17.000000    3.0054606298351D-05  5.029D-06
   17.025000    2.9790835151444D-05  4.985D-06
   17.050000    2.9529760432620D-05  4.942D-06
   17.075000    2.9271350692692D-05  4.898D-06
   17.100000    2.9015574894413D-05  4.856D-06
   17.125000    2.8762402406437D-05  4.813D-06
   17.150000    2.8511802997488D-05  4.771D-06
   17.175000    2.8263746830525D-05  4.730D-06
   17.200000    2.8018204457060D-05  4.689D-06
   17.225000    2.7775146811536D-05  4.648D-06
   17.250000    2.7534545205810D-05  4.608D-06
   17.275000    2.7296371323719D-05  4.568D-06
   17.300000    2.7060597215740D-05  4.528D-06
   17.325000    2.6827195293700D-05  4.489D-06
   17.350000    2.6596138325615D-05  4.451D-06
   17.375000    2.6367399430580D-05  4.412D-06
   17.400000    2.6140952073765D-05  4.375D-06
   17.425000    2.5916770061453D-05  4.337D-06
   17.450000    2.5694827536191D-05  4.300D-06
   17.475000    2.5475098971977D-05  4.263D-06
   17.500000    2.5257559169604D-05  4.227D-06
   17.525000    2.5042183251957D-05  4.191D-06
   17.550000    2.4828946659470D-05  4.155D-06
   17.575000    2.4617825145657D-05  4.120D-06
   17.600000    2.4408794772650D-05  4.085D-06
   17.625000    2.4201831906839D-05  4.050D-06
   17.650000    2.3996913214626D-05  4.016D-06
   17.675000    2.3794015658159D-05  3.982D-06
   17.700000    2.3593116491185D-05  3.948D-06
   17.725000    2.3394193254964D-05  3.915D-06
   17.750000    2.3197223774236D-05  3.882D-06
   17.775000    2.3002186153258D-05  3.849D-06
   17.800000    2.2809058771867D-05  3.817D-06
   17.825000    2.2617820281673D-05  3.785D-06
   17.850000    2.2428449602253D-05  3.753D-06
   17.875000    2.2240925917394D-05  3.722D-06
   17.900000    2.2055228671473D-05  3.691D-06
   17.925000    2.1871337565800D-05  3.660D-06
   17.950000    2.1689232555060D-05  3.630D-06
   17.975000    2.1508893843798D-05  3.599D-06
   18.000000    2.1330301883033D-05  3.570D-06
   18.025000    2.1153437366735D-05  3.540D-06
   18.050000    2.0978281228574D-05  3.511D-06
   18.075000    2.0804814638570D-05  3.482D-06