
variables = "r", "tA(r)", "Uncertainty"
zone T = "State 2 qA(r)  66N16p6q3Rf4_40_C6fr"

    1.500000   -1.5591366419517D-04  1.479D-05
    1.562500   -1.4938123780915D-04  1.417D-05
    1.625000   -1.4262218365487D-04  1.353D-05
    1.687500   -1.3567215861203D-04  1.287D-05
    1.750000   -1.2856881138586D-04  1.220D-05
    1.812500   -1.2135114682364D-04  1.151D-05
    1.875000   -1.1405887405347D-04  1.082D-05
    1.937500   -1.0673175756490D-04  1.013D-05
    2.000000   -9.9408989675079D-05  9.432D-06
    2.062500   -9.2128601318217D-05  8.741D-06
    2.125000   -8.4926925885579D-05  8.058D-06
    2.187500   -7.7838128091041D-05  7.385D-06
    2.250000   -7.0893806733583D-05  6.726D-06
    2.312500   -6.4122676968189D-05  6.084D-06
    2.375000   -5.7550334469959D-05  5.460D-06
    2.437500   -5.1199100849805D-05  4.858D-06
    2.500000   -4.5087946990375D-05  4.278D-06
    2.562500   -3.9232488716736D-05  3.722D-06
    2.625000   -3.3645047457713D-05  3.192D-06
    2.687500   -2.8334767312300D-05  2.688D-06
    2.750000   -2.3307779199754D-05  2.211D-06
    2.812500   -1.8567402502646D-05  1.762D-06
    2.875000   -1.4114374750305D-05  1.339D-06
    2.937500   -9.9471003640680D-06  9.438D-07
    3.000000   -6.0619102181364D-06  5.752D-07
    3.062500   -2.4533246837823D-06  2.328D-07
    3.125000    8.8568615200453D-07  8.403D-08
    3.187500    3.9634503330423D-06  3.761D-07
    3.250000    6.7893541233789D-06  6.442D-07
    3.312500    9.3736175048175D-06  8.894D-07
    3.375000    1.1727087315506D-05  1.113D-06
    3.437500    1.3861049431114D-05  1.315D-06
    3.500000    1.5787060670955D-05  1.498D-06
    3.562500    1.7516800508372D-05  1.662D-06
    3.625000    1.9061942175758D-05  1.809D-06
    3.687500    2.0434042373097D-05  1.939D-06
    3.750000    2.1644448505443D-05  2.054D-06
    3.812500    2.2704222177828D-05  2.154D-06
    3.875000    2.3624077553517D-05  2.241D-06
    3.937500    2.4414333121081D-05  2.316D-06
    4.000000    2.5084875405670D-05  2.380D-06
    4.062500    2.5645133189242D-05  2.433D-06
    4.125000    2.6104060863768D-05  2.477D-06
    4.187500    2.6470129622026D-05  2.511D-06
    4.250000    2.6751325285450D-05  2.538D-06
    4.312500    2.6955151671717D-05  2.558D-06
    4.375000    2.7088638511472D-05  2.570D-06
    4.437500    2.7158353030286D-05  2.577D-06
    4.500000    2.7170414415602D-05  2.578D-06
    4.562500    2.7130510487172D-05  2.574D-06
    4.625000    2.7043915981852D-05  2.566D-06
    4.687500    2.6915511948792D-05  2.554D-06
    4.750000    2.6749805828553D-05  2.538D-06
    4.812500    2.6550951859408D-05  2.519D-06
    4.875000    2.6322771516203D-05  2.498D-06
    4.937500    2.6068773741882D-05  2.473D-06
    5.000000    2.5792174779634D-05  2.447D-06
    5.062500    2.5495917455094D-05  2.419D-06
    5.125000    2.5182689793566D-05  2.389D-06
    5.187500    2.4854942887576D-05  2.358D-06
    5.250000    2.4514907955570D-05  2.326D-06
    5.312500    2.4164612553961D-05  2.293D-06
    5.375000    2.3805895922325D-05  2.259D-06
    5.437500    2.3440423456023D-05  2.224D-06
    5.500000    2.3069700312120D-05  2.189D-06
    5.562500    2.2695084163730D-05  2.153D-06
    5.625000    2.2317797125091D-05  2.118D-06
    5.687500    2.1938936875131D-05  2.082D-06
    5.750000    2.1559487011305D-05  2.046D-06
    5.812500    2.1180326668233D-05  2.010D-06
    5.875000    2.0802239437489D-05  1.974D-06
    5.937500    2.0425921625832D-05  1.938D-06
    6.000000    2.0051989889483D-05  1.903D-06
    6.062500    1.9680988281803D-05  1.867D-06
    6.125000    1.9313394751100D-05  1.832D-06
    6.187500    1.8949627124305D-05  1.798D-06
    6.250000    1.8590048611055D-05  1.764D-06
    6.312500    1.8234972861327D-05  1.730D-06
    6.375000    1.7884668608264D-05  1.697D-06
    6.437500    1.7539363926243D-05  1.664D-06
    6.500000    1.7199250132615D-05  1.632D-06
    6.562500    1.6864485359917D-05  1.600D-06
    6.625000    1.6535197823730D-05  1.569D-06
    6.687500    1.6211488809756D-05  1.538D-06
    6.750000    1.5893435402176D-05  1.508D-06
    6.812500    1.5581092973816D-05  1.478D-06
    6.875000    1.5274497457252D-05  1.449D-06
    6.937500    1.4973667414612D-05  1.421D-06
    7.000000    1.4678605922533D-05  1.393D-06
    7.062500    1.4389302287533D-05  1.365D-06
    7.125000    1.4105733605884D-05  1.338D-06
    7.187500    1.3827866181008D-05  1.312D-06
    7.250000    1.3555656810410D-05  1.286D-06
    7.312500    1.3289053953208D-05  1.261D-06
    7.375000    1.3027998788458D-05  1.236D-06
    7.437500    1.2772426173648D-05  1.212D-06
    7.500000    1.2522265511962D-05  1.188D-06
    7.562500    1.2277441536262D-05  1.165D-06
    7.625000    1.2037875017012D-05  1.142D-06
    7.687500    1.1803483400845D-05  1.120D-06
    7.750000    1.1574181385865D-05  1.098D-06
    7.812500    1.1349881439288D-05  1.077D-06
    7.875000    1.1130494262552D-05  1.056D-06
    7.937500    1.0915929208601D-05  1.036D-06
    8.000000    1.0706094655621D-05  1.016D-06
    8.062500    1.0500898341176D-05  9.963D-07
    8.125000    1.0300247660342D-05  9.773D-07
    8.187500    1.0104049931103D-05  9.587D-07
    8.250000    9.9122126300368D-06  9.405D-07
    8.312500    9.7246436010226D-06  9.227D-07
    8.375000    9.5412512394701D-06  9.053D-07
    8.437500    9.3619446543676D-06  8.883D-07
    8.500000    9.1866338102297D-06  8.716D-07
    8.562500    9.0152296508490D-06  8.554D-07
    8.625000    8.8476442065897D-06  8.395D-07
    8.687500    8.6837906868060D-06  8.239D-07
    8.750000    8.5235835588275D-06  8.087D-07
    8.812500    8.3669386148282D-06  7.939D-07
    8.875000    8.2137730277756D-06  7.793D-07
    8.937500    8.0640053975517D-06  7.651D-07
    9.000000    7.9175557882384D-06  7.512D-07
    9.062500    7.7743457574711D-06  7.376D-07
    9.125000    7.6342983786828D-06  7.243D-07
    9.187500    7.4973382569856D-06  7.113D-07
    9.250000    7.3633915393692D-06  6.986D-07
    9.312500    7.2323859198337D-06  6.862D-07
    9.375000    7.1042506400177D-06  6.741D-07
    9.437500    6.9789164858287D-06  6.622D-07
    9.500000    6.8563157805402D-06  6.505D-07
    9.562500    6.7363823747706D-06  6.391D-07
    9.625000    6.6190516337264D-06  6.280D-07
    9.687500    6.5042604220500D-06  6.171D-07
    9.750000    6.3919470865853D-06  6.065D-07
    9.812500    6.2820514373399D-06  5.960D-07
    9.875000    6.1745147268995D-06  5.858D-07
    9.937500    6.0692796285221D-06  5.759D-07
   10.000000    5.9662902131194D-06  5.661D-07
   10.062500    5.8654919253112D-06  5.565D-07
   10.125000    5.7668315587199D-06  5.472D-07
   10.187500    5.6702572306558D-06  5.380D-07
   10.250000    5.5757183563287D-06  5.290D-07
   10.312500    5.4831656227045D-06  5.202D-07
   10.375000    5.3925509621182D-06  5.116D-07
   10.437500    5.3038275257368D-06  5.032D-07
   10.500000    5.2169496569597D-06  4.950D-07
   10.562500    5.1318728648320D-06  4.869D-07
   10.625000    5.0485537975400D-06  4.790D-07
   10.687500    4.9669502160459D-06  4.713D-07
   10.750000    4.8870209679171D-06  4.637D-07
   10.812500    4.8087259613946D-06  4.563D-07
   10.875000    4.7320261397412D-06  4.490D-07
   10.937500    4.6568834559045D-06  4.418D-07
   11.000000    4.5832608475251D-06  4.349D-07
   11.062500    4.5111222123152D-06  4.280D-07
   11.125000    4.4404323838299D-06  4.213D-07
   11.187500    4.3711571076499D-06  4.147D-07
   11.250000    4.3032630179904D-06  4.083D-07
   11.312500    4.2367176147482D-06  4.020D-07
   11.375000    4.1714892409981D-06  3.958D-07
   11.437500    4.1075470609444D-06  3.897D-07
   11.500000    4.0448610383343D-06  3.838D-07
   11.562500    3.9834019153362D-06  3.779D-07
   11.625000    3.9231411918850D-06  3.722D-07
   11.687500    3.8640511054945D-06  3.666D-07
   11.750000    3.8061046115368D-06  3.611D-07
   11.812500    3.7492753639864D-06  3.557D-07
   11.875000    3.6935376966259D-06  3.504D-07
   11.937500    3.6388666047095D-06  3.453D-07
   12.000000    3.5852377270797D-06  3.402D-07
   12.062500    3.5326273287327D-06  3.352D-07
   12.125000    3.4810122838249D-06  3.303D-07
   12.187500    3.4303700591155D-06  3.255D-07
   12.250000    3.3806786978380D-06  3.208D-07
   12.312500    3.3319168039934D-06  3.161D-07
   12.375000    3.2840635270573D-06  3.116D-07
   12.437500    3.2370985470938D-06  3.071D-07
   12.500000    3.1910020602676D-06  3.028D-07
   12.562500    3.1457547647466D-06  2.985D-07
   12.625000    3.1013378469869D-06  2.943D-07
   12.687500    3.0577329683915D-06  2.901D-07
   12.750000    3.0149222523345D-06  2.861D-07
   12.812500    2.9728882715428D-06  2.821D-07
   12.875000    2.9316140358264D-06  2.782D-07
   12.937500    2.8910829801497D-06  2.743D-07
   13.000000    2.8512789530342D-06  2.705D-07
   13.062500    2.8121862052862D-06  2.668D-07
   13.125000    2.7737893790396D-06  2.632D-07
   13.187500    2.7360734971072D-06  2.596D-07
   13.250000    2.6990239526314D-06  2.561D-07
   13.312500    2.6626264990270D-06  2.526D-07
   13.375000    2.6268672402089D-06  2.492D-07
   13.437500    2.5917326210956D-06  2.459D-07
   13.500000    2.5572094183826D-06  2.426D-07
   13.562500    2.5232847315781D-06  2.394D-07
   13.625000    2.4899459742922D-06  2.362D-07
   13.687500    2.4571808657756D-06  2.331D-07
   13.750000    2.4249774226976D-06  2.301D-07
   13.812500    2.3933239511593D-06  2.271D-07
   13.875000    2.3622090389338D-06  2.241D-07
   13.937500    2.3316215479280D-06  2.212D-07
   14.000000    2.3015506068585D-06  2.184D-07
   14.062500    2.2719856041371D-06  2.156D-07
   14.125000    2.2429161809585D-06  2.128D-07
   14.187500    2.2143322245852D-06  2.101D-07
   14.250000    2.1862238618232D-06  2.074D-07
   14.312500    2.1585814526842D-06  2.048D-07
   14.375000    2.1313955842274D-06  2.022D-07
   14.437500    2.1046570645766D-06  1.997D-07
   14.500000    2.0783569171076D-06  1.972D-07
   14.562500    2.0524863747999D-06  1.947D-07
   14.625000    2.0270368747494D-06  1.923D-07
   14.687500    2.0020000528363D-06  1.900D-07
   14.750000    1.9773677385435D-06  1.876D-07
   14.812500    1.9531319499219D-06  1.853D-07
   14.875000    1.9292848886982D-06  1.831D-07
   14.937500    1.9058189355199D-06  1.808D-07
   15.000000    1.8827266453347D-06  1.786D-07
   15.062500    1.8600007429003D-06  1.765D-07
   15.125000    1.8376341184189D-06  1.744D-07
   15.187500    1.8156198232964D-06  1.723D-07
   15.250000    1.7939510660177D-06  1.702D-07
   15.312500    1.7726212081397D-06  1.682D-07
   15.375000    1.7516237603949D-06  1.662D-07
   15.437500    1.7309523789037D-06  1.642D-07
   15.500000    1.7106008614923D-06  1.623D-07
   15.562500    1.6905631441132D-06  1.604D-07
   15.625000    1.6708332973641D-06  1.585D-07
   15.687500    1.6514055231038D-06  1.567D-07
   15.750000    1.6322741511614D-06  1.549D-07
   15.812500    1.6134336361366D-06  1.531D-07
   15.875000    1.5948785542872D-06  1.513D-07
   15.937500    1.5766036005027D-06  1.496D-07
   16.000000    1.5586035853611D-06  1.479D-07
   16.062500    1.5408734322658D-06  1.462D-07
   16.125000    1.5234081746603D-06  1.445D-07
   16.187500    1.5062029533199D-06  1.429D-07
   16.250000    1.4892530137162D-06  1.413D-07
   16.312500    1.4725537034529D-06  1.397D-07
   16.375000    1.4561004697723D-06  1.382D-07
   16.437500    1.4398888571275D-06  1.366D-07
   16.500000    1.4239145048213D-06  1.351D-07
   16.562500    1.4081731447083D-06  1.336D-07
   16.625000    1.3926605989581D-06  1.321D-07
   16.687500    1.3773727778795D-06  1.307D-07
   16.750000    1.3623056778019D-06  1.293D-07
   16.812500    1.3474553790135D-06  1.278D-07
   16.875000    1.3328180437546D-06  1.265D-07
   16.937500    1.3183899142637D-06  1.251D-07
   17.000000    1.3041673108758D-06  1.237D-07
   17.062500    1.2901466301709D-06  1.224D-07
   17.125000    1.2763243431705D-06  1.211D-07
   17.187500    1.2626969935830D-06  1.198D-07
   17.250000    1.2492611960938D-06  1.185D-07
   17.312500    1.2360136347006D-06  1.173D-07
   17.375000    1.2229510610929D-06  1.160D-07
   17.437500    1.2100702930723D-06  1.148D-07
   17.500000    1.1973682130149D-06  1.136D-07
   17.562500    1.1848417663737D-06  1.124D-07
   17.625000    1.1724879602186D-06  1.112D-07
   17.687500    1.1603038618153D-06  1.101D-07
   17.750000    1.1482865972403D-06  1.089D-07
   17.812500    1.1364333500310D-06  1.078D-07
   17.875000    1.1247413598713D-06  1.067D-07
   17.937500    1.1132079213102D-06  1.056D-07
   18.000000    1.1018303825131D-06  1.045D-07
   18.062500    1.0906061440447D-06  1.035D-07
   18.125000    1.0795326576836D-06  1.024D-07
   18.187500    1.0686074252657D-06  1.014D-07
   18.250000    1.0578279975579D-06  1.004D-07
   18.312500    1.0471919731592D-06  9.936D-08
   18.375000    1.0366969974303D-06  9.836D-08
   18.437500    1.0263407614491D-06  9.738D-08
   18.500000    1.0161210009932D-06  9.641D-08
   18.562500    1.0060354955473D-06  9.545D-08
   18.625000    9.9608206733498D-07  9.451D-08
   18.687500    9.8625858037532D-07  9.358D-08
   18.750000    9.7656293956212D-07  9.266D-08
   18.812500    9.6699308976618D-07  9.175D-08
   18.875000    9.5754701495967D-07  9.085D-08
   18.937500    9.4822273736197D-07  8.997D-08
   19.000000    9.3901831660639D-07  8.909D-08
   19.062500    9.2993184892732D-07  8.823D-08
   19.125000    9.2096146636718D-07  8.738D-08
   19.187500    9.1210533600264D-07  8.654D-08
   19.250000    9.0336165918961D-07  8.571D-08
   19.312500    8.9472867082647D-07  8.489D-08
   19.375000    8.8620463863518D-07  8.408D-08
   19.437500    8.7778786245954D-07  8.328D-08
   19.500000    8.6947667358044D-07  8.250D-08
   19.562500    8.6126943404742D-07  8.172D-08
   19.625000    8.5316453602627D-07  8.095D-08
   19.687500    8.4516040116209D-07  8.019D-08
   19.750000    8.3725547995761D-07  7.944D-08
   19.812500    8.2944825116613D-07  7.870D-08
   19.875000    8.2173722119887D-07  7.797D-08
   19.937500    8.1412092354636D-07  7.724D-08
   20.000000    8.0659791821331D-07  7.653D-08
   20.062500    7.9916679116689D-07  7.583D-08
   20.125000    7.9182615379787D-07  7.513D-08
   20.187500    7.8457464239425D-07  7.444D-08
   20.250000    7.7741091762738D-07  7.376D-08
   20.312500    7.7033366404979D-07  7.309D-08
   20.375000    7.6334158960479D-07  7.243D-08
   20.437500    7.5643342514740D-07  7.177D-08
   20.500000    7.4960792397626D-07  7.112D-08
   20.562500    7.4286386137640D-07  7.048D-08
   20.625000    7.3620003417247D-07  6.985D-08
   20.687500    7.2961526029216D-07  6.923D-08
   20.750000    7.2310837833964D-07  6.861D-08
   20.812500    7.1667824717870D-07  6.800D-08
   20.875000    7.1032374552537D-07  6.740D-08
   20.937500    7.0404377154973D-07  6.680D-08
   21.000000    6.9783724248680D-07  6.621D-08
   21.062500    6.9170309425615D-07  6.563D-08
   21.125000    6.8564028109007D-07  6.505D-08
   21.187500    6.7964777517012D-07  6.449D-08
   21.250000    6.7372456627178D-07  6.392D-08
   21.312500    6.6786966141706D-07  6.337D-08
   21.375000    6.6208208453480D-07  6.282D-08
   21.437500    6.5636087612864D-07  6.228D-08
   21.500000    6.5070509295218D-07  6.174D-08
   21.562500    6.4511380769144D-07  6.121D-08
   21.625000    6.3958610865433D-07  6.068D-08
   21.687500    6.3412109946684D-07  6.017D-08
   21.750000    6.2871789877607D-07  5.965D-08
   21.812500    6.2337563995960D-07  5.915D-08
   21.875000    6.1809347084126D-07  5.864D-08
   21.937500    6.1287055341320D-07  5.815D-08
   22.000000    6.0770606356379D-07  5.766D-08
   22.062500    6.0259919081164D-07  5.717D-08
   22.125000    5.9754913804521D-07  5.670D-08
   22.187500    5.9255512126815D-07  5.622D-08
   22.250000    5.8761636934999D-07  5.575D-08
   22.312500    5.8273212378236D-07  5.529D-08
   22.375000    5.7790163844026D-07  5.483D-08
   22.437500    5.7312417934858D-07  5.438D-08
   22.500000    5.6839902445343D-07  5.393D-08
   22.562500    5.6372546339854D-07  5.349D-08
   22.625000    5.5910279730619D-07  5.305D-08
   22.687500    5.5453033856291D-07  5.261D-08
   22.750000    5.5000741060972D-07  5.218D-08
   22.812500    5.4553334773666D-07  5.176D-08
   22.875000    5.4110749488177D-07  5.134D-08
   22.937500    5.3672920743420D-07  5.093D-08
   23.000000    5.3239785104150D-07  5.051D-08
   23.062500    5.2811280142081D-07  5.011D-08
   23.125000    5.2387344417421D-07  4.971D-08
   23.187500    5.1967917460760D-07  4.931D-08
   23.250000    5.1552939755363D-07  4.891D-08
   23.312500    5.1142352719800D-07  4.852D-08
   23.375000    5.0736098690966D-07  4.814D-08
   23.437500    5.0334120907419D-07  4.776D-08
   23.500000    4.9936363493079D-07  4.738D-08
   23.562500    4.9542771441257D-07  4.701D-08
   23.625000    4.9153290599008D-07  4.664D-08
   23.687500    4.8767867651799D-07  4.627D-08
   23.750000    4.8386450108500D-07  4.591D-08
   23.812500    4.8008986286667D-07  4.555D-08
   23.875000    4.7635425298131D-07  4.520D-08
   23.937500    4.7265717034874D-07  4.485D-08
   24.000000    4.6899812155188D-07  4.450D-08
   24.062500    4.6537662070117D-07  4.416D-08
   24.125000    4.6179218930167D-07  4.381D-08
   24.187500    4.5824435612286D-07  4.348D-08
   24.250000    4.5473265707091D-07  4.315D-08
   24.312500    4.5125663506367D-07  4.282D-08
   24.375000    4.4781583990808D-07  4.249D-08
   24.437500    4.4440982817987D-07  4.217D-08
   24.500000    4.4103816310588D-07  4.185D-08
   24.562500    4.3770041444848D-07  4.153D-08
   24.625000    4.3439615839242D-07  4.122D-08
   24.687500    4.3112497743381D-07  4.091D-08
   24.750000    4.2788646027129D-07  4.060D-08
   24.812500    4.2468020169940D-07  4.029D-08
   24.875000    4.2150580250388D-07  3.999D-08
   24.937500    4.1836286935919D-07  3.969D-08
   25.000000    4.1525101472781D-07  3.940D-08
   25.062500    4.1216985676173D-07  3.911D-08
   25.125000    4.0911901920562D-07  3.882D-08
   25.187500    4.0609813130199D-07  3.853D-08
   25.250000    4.0310682769816D-07  3.825D-08
   25.312500    4.0014474835498D-07  3.797D-08
   25.375000    3.9721153845735D-07  3.769D-08
   25.437500    3.9430684832641D-07  3.741D-08
   25.500000    3.9143033333332D-07  3.714D-08
   25.562500    3.8858165381489D-07  3.687D-08
   25.625000    3.8576047499070D-07  3.660D-08
   25.687500    3.8296646688163D-07  3.634D-08
   25.750000    3.8019930423026D-07  3.607D-08
   25.812500    3.7745866642246D-07  3.581D-08
   25.875000    3.7474423741062D-07  3.556D-08
   25.937500    3.7205570563832D-07  3.530D-08
   26.000000    3.6939276396633D-07  3.505D-08
   26.062500    3.6675510960005D-07  3.480D-08
   26.125000    3.6414244401831D-07  3.455D-08
   26.187500    3.6155447290340D-07  3.430D-08
   26.250000    3.5899090607257D-07  3.406D-08
   26.312500    3.5645145741066D-07  3.382D-08
   26.375000    3.5393584480397D-07  3.358D-08
   26.437500    3.5144379007544D-07  3.335D-08
   26.500000    3.4897501892098D-07  3.311D-08
   26.562500    3.4652926084695D-07  3.288D-08
   26.625000    3.4410624910878D-07  3.265D-08
   26.687500    3.4170572065076D-07  3.242D-08
   26.750000    3.3932741604690D-07  3.220D-08
   26.812500    3.3697107944283D-07  3.197D-08
   26.875000    3.3463645849885D-07  3.175D-08
   26.937500    3.3232330433389D-07  3.153D-08
   27.000000    3.3003137147057D-07  3.131D-08
   27.062500    3.2776041778123D-07  3.110D-08
   27.125000    3.2551020443495D-07  3.088D-08
   27.187500    3.2328049584544D-07  3.067D-08
   27.250000    3.2107105961998D-07  3.046D-08
   27.312500    3.1888166650916D-07  3.026D-08
   27.375000    3.1671209035767D-07  3.005D-08
   27.437500    3.1456210805575D-07  2.985D-08
   27.500000    3.1243149949171D-07  2.964D-08
   27.562500    3.1032004750516D-07  2.944D-08
   27.625000    3.0822753784114D-07  2.924D-08
   27.687500    3.0615375910502D-07  2.905D-08
   27.750000    3.0409850271822D-07  2.885D-08
   27.812500    3.0206156287465D-07  2.866D-08
   27.875000    3.0004273649804D-07  2.847D-08
   27.937500    2.9804182319987D-07  2.828D-08
   28.000000    2.9605862523810D-07  2.809D-08
   28.062500    2.9409294747671D-07  2.790D-08
   28.125000    2.9214459734575D-07  2.772D-08
   28.187500    2.9021338480226D-07  2.754D-08
   28.250000    2.8829912229176D-07  2.735D-08
   28.312500    2.8640162471047D-07  2.717D-08
   28.375000    2.8452070936814D-07  2.700D-08
   28.437500    2.8265619595154D-07  2.682D-08
   28.500000    2.8080790648859D-07  2.664D-08
   28.562500    2.7897566531303D-07  2.647D-08
   28.625000    2.7715929902987D-07  2.630D-08
   28.687500    2.7535863648117D-07  2.613D-08
   28.750000    2.7357350871265D-07  2.596D-08
   28.812500    2.7180374894073D-07  2.579D-08
   28.875000    2.7004919252018D-07  2.562D-08
   28.937500    2.6830967691228D-07  2.546D-08
   29.000000    2.6658504165355D-07  2.529D-08
   29.062500    2.6487512832500D-07  2.513D-08
   29.125000    2.6317978052189D-07  2.497D-08
   29.187500    2.6149884382405D-07  2.481D-08
   29.250000    2.5983216576656D-07  2.465D-08
   29.312500    2.5817959581112D-07  2.450D-08
   29.375000    2.5654098531770D-07  2.434D-08
   29.437500    2.5491618751683D-07  2.419D-08
   29.500000    2.5330505748221D-07  2.403D-08
   29.562500    2.5170745210388D-07  2.388D-08
   29.625000    2.5012323006178D-07  2.373D-08
   29.687500    2.4855225179977D-07  2.358D-08
   29.750000    2.4699437950007D-07  2.343D-08
   29.812500    2.4544947705811D-07  2.329D-08
   29.875000    2.4391741005783D-07  2.314D-08
   29.937500    2.4239804574731D-07  2.300D-08
   30.000000    2.4089125301491D-07  2.286D-08
   30.062500    2.3939690236571D-07  2.271D-08
   30.125000    2.3791486589836D-07  2.257D-08
   30.187500    2.3644501728230D-07  2.243D-08
   30.250000    2.3498723173542D-07  2.230D-08
   30.312500    2.3354138600192D-07  2.216D-08
   30.375000    2.3210735833074D-07  2.202D-08
   30.437500    2.3068502845415D-07  2.189D-08
   30.500000    2.2927427756681D-07  2.175D-08
   30.562500    2.2787498830509D-07  2.162D-08
   30.625000    2.2648704472677D-07  2.149D-08
   30.687500    2.2511033229107D-07  2.136D-08
   30.750000    2.2374473783891D-07  2.123D-08
   30.812500    2.2239014957363D-07  2.110D-08
   30.875000    2.2104645704189D-07  2.097D-08
   30.937500    2.1971355111497D-07  2.085D-08
   31.000000    2.1839132397025D-07  2.072D-08
   31.062500    2.1707966907313D-07  2.060D-08
   31.125000    2.1577848115910D-07  2.047D-08
   31.187500    2.1448765621621D-07  2.035D-08
   31.250000    2.1320709146772D-07  2.023D-08
   31.312500    2.1193668535501D-07  2.011D-08
   31.375000    2.1067633752096D-07  1.999D-08
   31.437500    2.0942594879330D-07  1.987D-08
   31.500000    2.0818542116841D-07  1.975D-08
   31.562500    2.0695465779535D-07  1.964D-08
   31.625000    2.0573356296003D-07  1.952D-08
   31.687500    2.0452204206983D-07  1.941D-08
   31.750000    2.0332000163821D-07  1.929D-08
   31.812500    2.0212734926980D-07  1.918D-08
   31.875000    2.0094399364547D-07  1.907D-08
   31.937500    1.9976984450793D-07  1.895D-08
   32.000000    1.9860481264724D-07  1.884D-08
   32.062500    1.9744880988677D-07  1.873D-08
   32.125000    1.9630174906930D-07  1.863D-08
   32.187500    1.9516354404324D-07  1.852D-08
   32.250000    1.9403410964930D-07  1.841D-08
   32.312500    1.9291336170702D-07  1.830D-08
   32.375000    1.9180121700188D-07  1.820D-08
   32.437500    1.9069759327232D-07  1.809D-08
   32.500000    1.8960240919708D-07  1.799D-08
   32.562500    1.8851558438269D-07  1.789D-08
   32.625000    1.8743703935123D-07  1.778D-08
   32.687500    1.8636669552816D-07  1.768D-08
   32.750000    1.8530447523043D-07  1.758D-08
   32.812500    1.8425030165467D-07  1.748D-08
   32.875000    1.8320409886566D-07  1.738D-08
   32.937500    1.8216579178494D-07  1.728D-08
   33.000000    1.8113530617953D-07  1.719D-08
   33.062500    1.8011256865087D-07  1.709D-08
   33.125000    1.7909750662398D-07  1.699D-08
   33.187500    1.7809004833665D-07  1.690D-08
   33.250000    1.7709012282890D-07  1.680D-08
   33.312500    1.7609765993255D-07  1.671D-08
   33.375000    1.7511259026094D-07  1.661D-08
   33.437500    1.7413484519883D-07  1.652D-08
   33.500000    1.7316435689244D-07  1.643D-08
   33.562500    1.7220105823960D-07  1.634D-08
   33.625000    1.7124488288009D-07  1.625D-08
   33.687500    1.7029576518610D-07  1.616D-08
   33.750000    1.6935364025287D-07  1.607D-08
   33.812500    1.6841844388934D-07  1.598D-08
   33.875000    1.6749011260918D-07  1.589D-08
   33.937500    1.6656858362160D-07  1.580D-08
   34.000000    1.6565379482268D-07  1.572D-08
   34.062500    1.6474568478651D-07  1.563D-08
   34.125000    1.6384419275667D-07  1.555D-08
   34.187500    1.6294925863766D-07  1.546D-08
   34.250000    1.6206082298663D-07  1.538D-08
   34.312500    1.6117882700509D-07  1.529D-08
   34.375000    1.6030321253081D-07  1.521D-08
   34.437500    1.5943392202980D-07  1.513D-08
   34.500000    1.5857089858844D-07  1.505D-08
   34.562500    1.5771408590568D-07  1.496D-08
   34.625000    1.5686342828542D-07  1.488D-08
   34.687500    1.5601887062889D-07  1.480D-08
   34.750000    1.5518035842727D-07  1.472D-08
   34.812500    1.5434783775430D-07  1.464D-08
   34.875000    1.5352125525904D-07  1.457D-08
   34.937500    1.5270055815877D-07  1.449D-08
   35.000000    1.5188569423193D-07  1.441D-08
   35.062500    1.5107661181119D-07  1.433D-08
   35.125000    1.5027325977661D-07  1.426D-08
   35.187500    1.4947558754887D-07  1.418D-08
   35.250000    1.4868354508269D-07  1.411D-08
   35.312500    1.4789708286021D-07  1.403D-08
   35.375000    1.4711615188456D-07  1.396D-08
   35.437500    1.4634070367347D-07  1.388D-08
   35.500000    1.4557069025301D-07  1.381D-08
   35.562500    1.4480606415136D-07  1.374D-08
   35.625000    1.4404677839273D-07  1.367D-08
   35.687500    1.4329278649129D-07  1.360D-08
   35.750000    1.4254404244530D-07  1.352D-08
   35.812500    1.4180050073117D-07  1.345D-08
   35.875000    1.4106211629776D-07  1.338D-08
   35.937500    1.4032884456060D-07  1.331D-08
   36.000000    1.3960064139629D-07  1.325D-08
   36.062500    1.3887746313701D-07  1.318D-08
   36.125000    1.3815926656500D-07  1.311D-08
   36.187500    1.3744600890718D-07  1.304D-08
   36.250000    1.3673764782979D-07  1.297D-08
   36.312500    1.3603414143321D-07  1.291D-08
   36.375000    1.3533544824677D-07  1.284D-08
   36.437500    1.3464152722357D-07  1.277D-08
   36.500000    1.3395233773555D-07  1.271D-08
   36.562500    1.3326783956845D-07  1.264D-08
   36.625000    1.3258799291691D-07  1.258D-08
   36.687500    1.3191275837968D-07  1.252D-08
   36.750000    1.3124209695479D-07  1.245D-08
   36.812500    1.3057597003491D-07  1.239D-08
   36.875000    1.2991433940265D-07  1.233D-08
   36.937500    1.2925716722600D-07  1.226D-08
   37.000000    1.2860441605384D-07  1.220D-08
   37.062500    1.2795604881140D-07  1.214D-08
   37.125000    1.2731202879595D-07  1.208D-08
   37.187500    1.2667231967241D-07  1.202D-08
   37.250000    1.2603688546908D-07  1.196D-08
   37.312500    1.2540569057342D-07  1.190D-08
   37.375000    1.2477869972785D-07  1.184D-08
   37.437500    1.2415587802566D-07  1.178D-08
   37.500000    1.2353719090695D-07  1.172D-08
   37.562500    1.2292260415462D-07  1.166D-08
   37.625000    1.2231208389040D-07  1.161D-08
   37.687500    1.2170559657097D-07  1.155D-08
   37.750000    1.2110310898409D-07  1.149D-08
   37.812500    1.2050458824478D-07  1.143D-08
   37.875000    1.1991000179166D-07  1.138D-08
   37.937500    1.1931931738310D-07  1.132D-08
   38.000000    1.1873250309372D-07  1.127D-08
   38.062500    1.1814952731067D-07  1.121D-08
   38.125000    1.1757035873011D-07  1.116D-08
   38.187500    1.1699496635371D-07  1.110D-08
   38.250000    1.1642331948518D-07  1.105D-08
   38.312500    1.1585538772681D-07  1.099D-08
   38.375000    1.1529114097612D-07  1.094D-08
   38.437500    1.1473054942256D-07  1.089D-08
   38.500000    1.1417358354414D-07  1.083D-08
   38.562500    1.1362021410421D-07  1.078D-08
   38.625000    1.1307041214830D-07  1.073D-08
   38.687500    1.1252414900089D-07  1.068D-08
   38.750000    1.1198139626231D-07  1.062D-08
   38.812500    1.1144212580564D-07  1.057D-08
   38.875000    1.1090630977369D-07  1.052D-08
   38.937500    1.1037392057596D-07  1.047D-08
   39.000000    1.0984493088568D-07  1.042D-08
   39.062500    1.0931931363692D-07  1.037D-08
   39.125000    1.0879704202156D-07  1.032D-08
   39.187500    1.0827808948663D-07  1.027D-08
   39.250000    1.0776242973133D-07  1.022D-08
   39.312500    1.0725003670430D-07  1.018D-08
   39.375000    1.0674088460084D-07  1.013D-08
   39.437500    1.0623494786028D-07  1.008D-08
   39.500000    1.0573220116315D-07  1.003D-08
   39.562500    1.0523261942867D-07  9.985D-09
   39.625000    1.0473617781207D-07  9.937D-09
   39.687500    1.0424285170198D-07  9.891D-09
   39.750000    1.0375261671792D-07  9.844D-09
   39.812500    1.0326544870781D-07  9.798D-09
   39.875000    1.0278132374535D-07  9.752D-09
   39.937500    1.0230021812777D-07  9.706D-09
   40.000000    1.0182210837317D-07  9.661D-09
   40.062500    1.0134697121833D-07  9.616D-09
   40.125000    1.0087478361620D-07  9.571D-09
   40.187500    1.0040552273363D-07  9.527D-09
   40.250000    9.9939165949021D-08  9.482D-09
   40.312500    9.9475690850125D-08  9.438D-09
   40.375000    9.9015075231659D-08  9.395D-09
   40.437500    9.8557297093170D-08  9.351D-09
   40.500000    9.8102334636862D-08  9.308D-09
   40.562500    9.7650166265340D-08  9.265D-09
   40.625000    9.7200770579545D-08  9.222D-09
   40.687500    9.6754126376559D-08  9.180D-09
   40.750000    9.6310212647584D-08  9.138D-09
   40.812500    9.5869008575822D-08  9.096D-09
   40.875000    9.5430493534465D-08  9.054D-09
   40.937500    9.4994647084659D-08  9.013D-09
   41.000000    9.4561448973502D-08  8.972D-09
   41.062500    9.4130879132141D-08  8.931D-09
   41.125000    9.3702917673717D-08  8.891D-09
   41.187500    9.3277544891532D-08  8.850D-09