
variables = "r", "UA(r)", "Uncertainty"
zone T = "State 1 UA(r)  66N16p6q3Rf4_40     "

    1.350000    1.1984335697591D+00  1.866D-01
    1.355000    1.1967218373760D+00  1.865D-01
    1.360000    1.1949815908960D+00  1.864D-01
    1.365000    1.1932125379626D+00  1.862D-01
    1.370000    1.1914143873927D+00  1.861D-01
    1.375000    1.1895868493070D+00  1.860D-01
    1.380000    1.1877296352624D+00  1.859D-01
    1.385000    1.1858424583877D+00  1.857D-01
    1.390000    1.1839250335220D+00  1.856D-01
    1.395000    1.1819770773557D+00  1.855D-01
    1.400000    1.1799983085740D+00  1.853D-01
    1.405000    1.1779884480032D+00  1.852D-01
    1.410000    1.1759472187604D+00  1.851D-01
    1.415000    1.1738743464045D+00  1.849D-01
    1.420000    1.1717695590912D+00  1.848D-01
    1.425000    1.1696325877298D+00  1.846D-01
    1.430000    1.1674631661427D+00  1.845D-01
    1.435000    1.1652610312280D+00  1.843D-01
    1.440000    1.1630259231240D+00  1.842D-01
    1.445000    1.1607575853763D+00  1.840D-01
    1.450000    1.1584557651081D+00  1.838D-01
    1.455000    1.1561202131918D+00  1.837D-01
    1.460000    1.1537506844239D+00  1.835D-01
    1.465000    1.1513469377018D+00  1.833D-01
    1.470000    1.1489087362031D+00  1.832D-01
    1.475000    1.1464358475668D+00  1.830D-01
    1.480000    1.1439280440769D+00  1.828D-01
    1.485000    1.1413851028483D+00  1.826D-01
    1.490000    1.1388068060146D+00  1.824D-01
    1.495000    1.1361929409174D+00  1.823D-01
    1.500000    1.1335433002983D+00  1.821D-01
    1.505000    1.1308576824921D+00  1.819D-01
    1.510000    1.1281358916221D+00  1.817D-01
    1.515000    1.1253777377968D+00  1.815D-01
    1.520000    1.1225830373084D+00  1.813D-01
    1.525000    1.1197516128325D+00  1.811D-01
    1.530000    1.1168832936293D+00  1.808D-01
    1.535000    1.1139779157461D+00  1.806D-01
    1.540000    1.1110353222210D+00  1.804D-01
    1.545000    1.1080553632871D+00  1.802D-01
    1.550000    1.1050378965786D+00  1.800D-01
    1.555000    1.1019827873366D+00  1.797D-01
    1.560000    1.0988899086167D+00  1.795D-01
    1.565000    1.0957591414959D+00  1.793D-01
    1.570000    1.0925903752809D+00  1.790D-01
    1.575000    1.0893835077163D+00  1.788D-01
    1.580000    1.0861384451927D+00  1.785D-01
    1.585000    1.0828551029551D+00  1.783D-01
    1.590000    1.0795334053111D+00  1.780D-01
    1.595000    1.0761732858381D+00  1.778D-01
    1.600000    1.0727746875914D+00  1.775D-01
    1.605000    1.0693375633098D+00  1.773D-01
    1.610000    1.0658618756217D+00  1.770D-01
    1.615000    1.0623475972500D+00  1.767D-01
    1.620000    1.0587947112148D+00  1.764D-01
    1.625000    1.0552032110364D+00  1.761D-01
    1.630000    1.0515731009346D+00  1.759D-01
    1.635000    1.0479043960283D+00  1.756D-01
    1.640000    1.0441971225319D+00  1.753D-01
    1.645000    1.0404513179495D+00  1.750D-01
    1.650000    1.0366670312674D+00  1.747D-01
    1.655000    1.0328443231435D+00  1.744D-01
    1.660000    1.0289832660938D+00  1.740D-01
    1.665000    1.0250839446766D+00  1.737D-01
    1.670000    1.0211464556722D+00  1.734D-01
    1.675000    1.0171709082608D+00  1.731D-01
    1.680000    1.0131574241951D+00  1.727D-01
    1.685000    1.0091061379699D+00  1.724D-01
    1.690000    1.0050171969876D+00  1.721D-01
    1.695000    1.0008907617187D+00  1.717D-01
    1.700000    9.9672700585828D-01  1.714D-01
    1.705000    9.9252611647750D-01  1.710D-01
    1.710000    9.8828829416974D-01  1.706D-01
    1.715000    9.8401375319176D-01  1.703D-01
    1.720000    9.7970272159912D-01  1.699D-01
    1.725000    9.7535544137587D-01  1.695D-01
    1.730000    9.7097216855818D-01  1.691D-01
    1.735000    9.6655317335166D-01  1.687D-01
    1.740000    9.6209874024217D-01  1.683D-01
    1.745000    9.5760916809993D-01  1.679D-01
    1.750000    9.5308477027651D-01  1.675D-01
    1.755000    9.4852587469468D-01  1.671D-01
    1.760000    9.4393282393074D-01  1.667D-01
    1.765000    9.3930597528910D-01  1.663D-01
    1.770000    9.3464570086897D-01  1.659D-01
    1.775000    9.2995238762284D-01  1.654D-01
    1.780000    9.2522643740653D-01  1.650D-01
    1.785000    9.2046826702066D-01  1.646D-01
    1.790000    9.1567830824321D-01  1.641D-01
    1.795000    9.1085700785300D-01  1.636D-01
    1.800000    9.0600482764395D-01  1.632D-01
    1.805000    9.0112224442978D-01  1.627D-01
    1.810000    8.9620975003901D-01  1.622D-01
    1.815000    8.9126785130011D-01  1.618D-01
    1.820000    8.8629707001650D-01  1.613D-01
    1.825000    8.8129794293129D-01  1.608D-01
    1.830000    8.7627102168164D-01  1.603D-01
    1.835000    8.7121687274233D-01  1.598D-01
    1.840000    8.6613607735873D-01  1.593D-01
    1.845000    8.6102923146867D-01  1.588D-01
    1.850000    8.5589694561327D-01  1.582D-01
    1.855000    8.5073984483659D-01  1.577D-01
    1.860000    8.4555856857382D-01  1.572D-01
    1.865000    8.4035377052806D-01  1.566D-01
    1.870000    8.3512611853546D-01  1.561D-01
    1.875000    8.2987629441871D-01  1.555D-01
    1.880000    8.2460499382873D-01  1.550D-01
    1.885000    8.1931292607450D-01  1.544D-01
    1.890000    8.1400081394098D-01  1.538D-01
    1.895000    8.0866939349501D-01  1.532D-01
    1.900000    8.0331941387932D-01  1.526D-01
    1.905000    7.9795163709430D-01  1.520D-01
    1.910000    7.9256683776791D-01  1.514D-01
    1.915000    7.8716580291336D-01  1.508D-01
    1.920000    7.8174933167491D-01  1.502D-01
    1.925000    7.7631823506144D-01  1.496D-01
    1.930000    7.7087333566826D-01  1.490D-01
    1.935000    7.6541546738679D-01  1.483D-01
    1.940000    7.5994547510253D-01  1.477D-01
    1.945000    7.5446421438116D-01  1.470D-01
    1.950000    7.4897255114300D-01  1.464D-01
    1.955000    7.4347136132589D-01  1.457D-01
    1.960000    7.3796153053666D-01  1.450D-01
    1.965000    7.3244395369130D-01  1.444D-01
    1.970000    7.2691953464396D-01  1.437D-01
    1.975000    7.2138918580506D-01  1.430D-01
    1.980000    7.1585382774862D-01  1.423D-01
    1.985000    7.1031438880901D-01  1.416D-01
    1.990000    7.0477180466739D-01  1.409D-01
    1.995000    6.9922701792809D-01  1.402D-01
    2.000000    6.9368097768509D-01  1.394D-01
    2.005000    6.8813463907902D-01  1.387D-01
    2.010000    6.8258896284478D-01  1.379D-01
    2.015000    6.7704491485030D-01  1.372D-01
    2.020000    6.7150346562655D-01  1.364D-01
    2.025000    6.6596558988926D-01  1.357D-01
    2.030000    6.6043226605266D-01  1.349D-01
    2.035000    6.5490447573561D-01  1.341D-01
    2.040000    6.4938320326045D-01  1.333D-01
    2.045000    6.4386943514504D-01  1.326D-01
    2.050000    6.3836415958832D-01  1.318D-01
    2.055000    6.3286836594981D-01  1.310D-01
    2.060000    6.2738304422361D-01  1.301D-01
    2.065000    6.2190918450704D-01  1.293D-01
    2.070000    6.1644777646481D-01  1.285D-01
    2.075000    6.1099980878871D-01  1.277D-01
    2.080000    6.0556626865366D-01  1.268D-01
    2.085000    6.0014814117047D-01  1.260D-01
    2.090000    5.9474640883569D-01  1.251D-01
    2.095000    5.8936205097933D-01  1.243D-01
    2.100000    5.8399604321067D-01  1.234D-01
    2.105000    5.7864935686287D-01  1.225D-01
    2.110000    5.7332295843681D-01  1.216D-01
    2.115000    5.6801780904481D-01  1.207D-01
    2.120000    5.6273486385459D-01  1.199D-01
    2.125000    5.5747507153415D-01  1.190D-01
    2.130000    5.5223937369814D-01  1.180D-01
    2.135000    5.4702870435610D-01  1.171D-01
    2.140000    5.4184398936338D-01  1.162D-01
    2.145000    5.3668614587498D-01  1.153D-01
    2.150000    5.3155608180321D-01  1.143D-01
    2.155000    5.2645469527944D-01  1.134D-01
    2.160000    5.2138287412069D-01  1.125D-01
    2.165000    5.1634149530148D-01  1.115D-01
    2.170000    5.1133142443156D-01  1.106D-01
    2.175000    5.0635351524012D-01  1.096D-01
    2.180000    5.0140860906690D-01  1.086D-01
    2.185000    4.9649753436082D-01  1.076D-01
    2.190000    4.9162110618666D-01  1.067D-01
    2.195000    4.8678012574032D-01  1.057D-01
    2.200000    4.8197537987312D-01  1.047D-01
    2.205000    4.7720764062578D-01  1.037D-01
    2.210000    4.7247766477238D-01  1.027D-01
    2.215000    4.6778619337507D-01  1.017D-01
    2.220000    4.6313395134971D-01  1.007D-01
    2.225000    4.5852164704314D-01  9.964D-02
    2.230000    4.5394997182245D-01  9.861D-02
    2.235000    4.4941959967663D-01  9.758D-02
    2.240000    4.4493118683120D-01  9.655D-02
    2.245000    4.4048537137606D-01  9.551D-02
    2.250000    4.3608277290705D-01  9.447D-02
    2.255000    4.3172399218160D-01  9.342D-02
    2.260000    4.2740961078885D-01  9.237D-02
    2.265000    4.2314019083449D-01  9.131D-02
    2.270000    4.1891627464083D-01  9.025D-02
    2.275000    4.1473838446226D-01  8.919D-02
    2.280000    4.1060702221642D-01  8.812D-02
    2.285000    4.0652266923149D-01  8.705D-02
    2.290000    4.0248578600964D-01  8.597D-02
    2.295000    3.9849681200706D-01  8.489D-02
    2.300000    3.9455616543068D-01  8.381D-02
    2.305000    3.9066424305185D-01  8.273D-02
    2.310000    3.8682142003707D-01  8.164D-02
    2.315000    3.8302804979597D-01  8.055D-02
    2.320000    3.7928446384667D-01  7.945D-02
    2.325000    3.7559097169865D-01  7.835D-02
    2.330000    3.7194786075314D-01  7.726D-02
    2.335000    3.6835539622116D-01  7.615D-02
    2.340000    3.6481382105922D-01  7.505D-02
    2.345000    3.6132335592274D-01  7.394D-02
    2.350000    3.5788419913712D-01  7.284D-02
    2.355000    3.5449652668647D-01  7.173D-02
    2.360000    3.5116049221999D-01  7.062D-02
    2.365000    3.4787622707584D-01  6.950D-02
    2.370000    3.4464384032251D-01  6.839D-02
    2.375000    3.4146341881747D-01  6.728D-02
    2.380000    3.3833502728307D-01  6.616D-02
    2.385000    3.3525870839942D-01  6.504D-02
    2.390000    3.3223448291426D-01  6.393D-02
    2.395000    3.2926234976934D-01  6.281D-02
    2.400000    3.2634228624336D-01  6.169D-02
    2.405000    3.2347424811113D-01  6.057D-02
    2.410000    3.2065816981861D-01  5.946D-02
    2.415000    3.1789396467372D-01  5.834D-02
    2.420000    3.1518152505248D-01  5.722D-02
    2.425000    3.1252072262030D-01  5.611D-02
    2.430000    3.0991140856797D-01  5.499D-02
    2.435000    3.0735341386209D-01  5.388D-02
    2.440000    3.0484654950958D-01  5.277D-02
    2.445000    3.0239060683580D-01  5.166D-02
    2.450000    2.9998535777607D-01  5.055D-02
    2.455000    2.9763055518000D-01  4.944D-02
    2.460000    2.9532593312837D-01  4.834D-02
    2.465000    2.9307120726200D-01  4.724D-02
    2.470000    2.9086607512226D-01  4.614D-02
    2.475000    2.8871021650285D-01  4.504D-02
    2.480000    2.8660329381210D-01  4.394D-02
    2.485000    2.8454495244574D-01  4.285D-02
    2.490000    2.8253482116928D-01  4.177D-02
    2.495000    2.8057251250973D-01  4.068D-02
    2.500000    2.7865762315623D-01  3.960D-02
    2.505000    2.7678973436879D-01  3.853D-02
    2.510000    2.7496841239508D-01  3.746D-02
    2.515000    2.7319320889433D-01  3.639D-02
    2.520000    2.7146366136818D-01  3.533D-02
    2.525000    2.6977929359774D-01  3.427D-02
    2.530000    2.6813961608650D-01  3.322D-02
    2.535000    2.6654412650851D-01  3.218D-02
    2.540000    2.6499231016128D-01  3.114D-02
    2.545000    2.6348364042302D-01  3.011D-02
    2.550000    2.6201757921356D-01  2.908D-02
    2.555000    2.6059357745856D-01  2.807D-02
    2.560000    2.5921107555645D-01  2.706D-02
    2.565000    2.5786950384764D-01  2.606D-02
    2.570000    2.5656828308538D-01  2.507D-02
    2.575000    2.5530682490805D-01  2.409D-02
    2.580000    2.5408453231206D-01  2.311D-02
    2.585000    2.5290080012511D-01  2.216D-02
    2.590000    2.5175501547931D-01  2.121D-02
    2.595000    2.5064655828363D-01  2.027D-02
    2.600000    2.4957480169522D-01  1.936D-02
    2.605000    2.4853911258923D-01  1.845D-02
    2.610000    2.4753885202669D-01  1.756D-02
    2.615000    2.4657337571986D-01  1.670D-02
    2.620000    2.4564203449489D-01  1.585D-02
    2.625000    2.4474417475115D-01  1.503D-02
    2.630000    2.4387913891701D-01  1.423D-02
    2.635000    2.4304626590149D-01  1.346D-02
    2.640000    2.4224489154165D-01  1.273D-02
    2.645000    2.4147434904514D-01  1.204D-02
    2.650000    2.4073396942768D-01  1.139D-02
    2.655000    2.4002308194510D-01  1.079D-02
    2.660000    2.3934101451960D-01  1.024D-02
    2.665000    2.3868709415997D-01  9.765D-03
    2.670000    2.3806064737540D-01  9.358D-03
    2.675000    2.3746100058267D-01  9.032D-03
    2.680000    2.3688748050635D-01  8.792D-03
    2.685000    2.3633941457190D-01  8.644D-03
    2.690000    2.3581613129126D-01  8.589D-03
    2.695000    2.3531696064084D-01  8.627D-03
    2.700000    2.3484123443155D-01  8.756D-03
    2.705000    2.3438828667088D-01  8.967D-03
    2.710000    2.3395745391658D-01  9.254D-03
    2.715000    2.3354807562195D-01  9.608D-03
    2.720000    2.3315949447257D-01  1.002D-02
    2.725000    2.3279105671417D-01  1.048D-02
    2.730000    2.3244211247169D-01  1.098D-02
    2.735000    2.3211201605933D-01  1.151D-02
    2.740000    2.3180012628143D-01  1.207D-02
    2.745000    2.3150580672416D-01  1.266D-02
    2.750000    2.3122842603797D-01  1.326D-02
    2.755000    2.3096735821055D-01  1.387D-02
    2.760000    2.3072198283050D-01  1.450D-02
    2.765000    2.3049168534144D-01  1.513D-02
    2.770000    2.3027585728666D-01  1.577D-02
    2.775000    2.3007389654424D-01  1.641D-02
    2.780000    2.2988520755265D-01  1.705D-02
    2.785000    2.2970920152678D-01  1.770D-02
    2.790000    2.2954529666450D-01  1.834D-02
    2.795000    2.2939291834369D-01  1.899D-02
    2.800000    2.2925149930985D-01  1.963D-02
    2.805000    2.2912047985420D-01  2.026D-02
    2.810000    2.2899930798256D-01  2.090D-02
    2.815000    2.2888743957476D-01  2.153D-02
    2.820000    2.2878433853495D-01  2.215D-02
    2.825000    2.2868947693270D-01  2.277D-02
    2.830000    2.2860233513498D-01  2.338D-02
    2.835000    2.2852240192930D-01  2.399D-02
    2.840000    2.2844917463787D-01  2.459D-02
    2.845000    2.2838215922303D-01  2.519D-02
    2.850000    2.2832087038409D-01  2.578D-02
    2.855000    2.2826483164555D-01  2.636D-02
    2.860000    2.2821357543709D-01  2.694D-02
    2.865000    2.2816664316514D-01  2.750D-02
    2.870000    2.2812358527645D-01  2.806D-02
    2.875000    2.2808396131368D-01  2.862D-02
    2.880000    2.2804733996315D-01  2.916D-02
    2.885000    2.2801329909495D-01  2.970D-02
    2.890000    2.2798142579557D-01  3.023D-02
    2.895000    2.2795131639318D-01  3.075D-02
    2.900000    2.2792257647572D-01  3.127D-02
    2.905000    2.2789482090205D-01  3.177D-02
    2.910000    2.2786767380624D-01  3.227D-02
    2.915000    2.2784076859521D-01  3.276D-02
    2.920000    2.2781374793991D-01  3.324D-02
    2.925000    2.2778626376022D-01  3.372D-02
    2.930000    2.2775797720369D-01  3.419D-02
    2.935000    2.2772855861842D-01  3.464D-02
    2.940000    2.2769768752016D-01  3.509D-02
    2.945000    2.2766505255380D-01  3.554D-02
    2.950000    2.2763035144958D-01  3.597D-02
    2.955000    2.2759329097404D-01  3.640D-02
    2.960000    2.2755358687598D-01  3.681D-02
    2.965000    2.2751096382755D-01  3.722D-02
    2.970000    2.2746515536081D-01  3.762D-02
    2.975000    2.2741590379972D-01  3.802D-02
    2.980000    2.2736296018789D-01  3.840D-02
    2.985000    2.2730608421228D-01  3.878D-02
    2.990000    2.2724504412290D-01  3.915D-02
    2.995000    2.2717961664887D-01  3.951D-02
    3.000000    2.2710958691085D-01  3.987D-02
    3.005000    2.2703474833010D-01  4.021D-02
    3.010000    2.2695490253434D-01  4.055D-02
    3.015000    2.2686985926060D-01  4.088D-02
    3.020000    2.2677943625510D-01  4.121D-02
    3.025000    2.2668345917055D-01  4.152D-02
    3.030000    2.2658176146083D-01  4.183D-02
    3.035000    2.2647418427326D-01  4.213D-02
    3.040000    2.2636057633876D-01  4.242D-02
    3.045000    2.2624079385986D-01  4.271D-02
    3.050000    2.2611470039676D-01  4.298D-02
    3.055000    2.2598216675176D-01  4.325D-02
    3.060000    2.2584307085193D-01  4.352D-02
    3.065000    2.2569729763038D-01  4.377D-02
    3.070000    2.2554473890621D-01  4.402D-02
    3.075000    2.2538529326319D-01  4.426D-02
    3.080000    2.2521886592747D-01  4.450D-02
    3.085000    2.2504536864428D-01  4.472D-02
    3.090000    2.2486471955386D-01  4.494D-02
    3.095000    2.2467684306670D-01  4.516D-02
    3.100000    2.2448166973824D-01  4.536D-02
    3.105000    2.2427913614306D-01  4.556D-02
    3.110000    2.2406918474884D-01  4.576D-02
    3.115000    2.2385176379001D-01  4.594D-02
    3.120000    2.2362682714132D-01  4.612D-02
    3.125000    2.2339433419137D-01  4.630D-02
    3.130000    2.2315424971632D-01  4.646D-02
    3.135000    2.2290654375363D-01  4.662D-02
    3.140000    2.2265119147620D-01  4.678D-02
    3.145000    2.2238817306684D-01  4.693D-02
    3.150000    2.2211747359315D-01  4.707D-02
    3.155000    2.2183908288301D-01  4.720D-02
    3.160000    2.2155299540058D-01  4.733D-02
    3.165000    2.2125921012311D-01  4.746D-02
    3.170000    2.2095773041838D-01  4.758D-02
    3.175000    2.2064856392310D-01  4.769D-02
    3.180000    2.2033172242209D-01  4.780D-02
    3.185000    2.2000722172848D-01  4.790D-02
    3.190000    2.1967508156494D-01  4.799D-02
    3.195000    2.1933532544593D-01  4.808D-02
    3.200000    2.1898798056117D-01  4.816D-02
    3.205000    2.1863307766017D-01  4.824D-02
    3.210000    2.1827065093808D-01  4.832D-02
    3.215000    2.1790073792282D-01  4.838D-02
    3.220000    2.1752337936344D-01  4.845D-02
    3.225000    2.1713861911996D-01  4.851D-02
    3.230000    2.1674650405446D-01  4.856D-02
    3.235000    2.1634708392374D-01  4.861D-02
    3.240000    2.1594041127338D-01  4.865D-02
    3.245000    2.1552654133323D-01  4.869D-02
    3.250000    2.1510553191455D-01  4.872D-02
    3.255000    2.1467744330860D-01  4.875D-02
    3.260000    2.1424233818680D-01  4.877D-02
    3.265000    2.1380028150252D-01  4.879D-02
    3.270000    2.1335134039446D-01  4.881D-02
    3.275000    2.1289558409164D-01  4.882D-02
    3.280000    2.1243308382004D-01  4.883D-02
    3.285000    2.1196391271086D-01  4.883D-02
    3.290000    2.1148814571052D-01  4.883D-02
    3.295000    2.1100585949222D-01  4.882D-02
    3.300000    2.1051713236927D-01  4.881D-02
    3.305000    2.1002204421003D-01  4.879D-02
    3.310000    2.0952067635459D-01  4.878D-02
    3.315000    2.0901311153313D-01  4.875D-02
    3.320000    2.0849943378591D-01  4.873D-02
    3.325000    2.0797972838505D-01  4.870D-02
    3.330000    2.0745408175790D-01  4.866D-02
    3.335000    2.0692258141212D-01  4.863D-02
    3.340000    2.0638531586250D-01  4.859D-02
    3.345000    2.0584237455935D-01  4.854D-02
    3.350000    2.0529384781862D-01  4.850D-02
    3.355000    2.0473982675367D-01  4.845D-02
    3.360000    2.0418040320867D-01  4.839D-02
    3.365000    2.0361566969364D-01  4.833D-02
    3.370000    2.0304571932111D-01  4.827D-02
    3.375000    2.0247064574444D-01  4.821D-02
    3.380000    2.0189054309764D-01  4.814D-02
    3.385000    2.0130550593690D-01  4.807D-02
    3.390000    2.0071562918358D-01  4.800D-02
    3.395000    2.0012100806882D-01  4.793D-02
    3.400000    1.9952173807971D-01  4.785D-02
    3.405000    1.9891791490689D-01  4.777D-02
    3.410000    1.9830963439376D-01  4.768D-02
    3.415000    1.9769699248709D-01  4.760D-02
    3.420000    1.9708008518921D-01  4.751D-02
    3.425000    1.9645900851151D-01  4.742D-02
    3.430000    1.9583385842949D-01  4.732D-02
    3.435000    1.9520473083917D-01  4.723D-02
    3.440000    1.9457172151489D-01  4.713D-02
    3.445000    1.9393492606850D-01  4.703D-02
    3.450000    1.9329443990992D-01  4.692D-02
    3.455000    1.9265035820896D-01  4.682D-02
    3.460000    1.9200277585849D-01  4.671D-02
    3.465000    1.9135178743897D-01  4.660D-02
    3.470000    1.9069748718410D-01  4.649D-02
    3.475000    1.9003996894784D-01  4.637D-02
    3.480000    1.8937932617257D-01  4.626D-02
    3.485000    1.8871565185852D-01  4.614D-02
    3.490000    1.8804903853433D-01  4.602D-02
    3.495000    1.8737957822877D-01  4.590D-02
    3.500000    1.8670736244363D-01  4.577D-02
    3.505000    1.8603248212765D-01  4.565D-02
    3.510000    1.8535502765166D-01  4.552D-02
    3.515000    1.8467508878465D-01  4.539D-02
    3.520000    1.8399275467099D-01  4.526D-02
    3.525000    1.8330811380863D-01  4.513D-02
    3.530000    1.8262125402829D-01  4.500D-02
    3.535000    1.8193226247367D-01  4.487D-02
    3.540000    1.8124122558259D-01  4.473D-02
    3.545000    1.8054822906907D-01  4.459D-02
    3.550000    1.7985335790632D-01  4.445D-02
    3.555000    1.7915669631068D-01  4.431D-02
    3.560000    1.7845832772632D-01  4.417D-02
    3.565000    1.7775833481091D-01  4.403D-02
    3.570000    1.7705679942204D-01  4.389D-02
    3.575000    1.7635380260451D-01  4.374D-02
    3.580000    1.7564942457834D-01  4.359D-02
    3.585000    1.7494374472764D-01  4.345D-02
    3.590000    1.7423684159013D-01  4.330D-02
    3.595000    1.7352879284750D-01  4.315D-02
    3.600000    1.7281967531636D-01  4.300D-02
    3.605000    1.7210956494000D-01  4.285D-02
    3.610000    1.7139853678071D-01  4.270D-02
    3.615000    1.7068666501287D-01  4.254D-02
    3.620000    1.6997402291658D-01  4.239D-02
    3.625000    1.6926068287195D-01  4.223D-02
    3.630000    1.6854671635398D-01  4.208D-02
    3.635000    1.6783219392804D-01  4.192D-02
    3.640000    1.6711718524587D-01  4.177D-02
    3.645000    1.6640175904220D-01  4.161D-02
    3.650000    1.6568598313178D-01  4.145D-02
    3.655000    1.6496992440709D-01  4.129D-02
    3.660000    1.6425364883640D-01  4.113D-02
    3.665000    1.6353722146236D-01  4.097D-02
    3.670000    1.6282070640110D-01  4.081D-02
    3.675000    1.6210416684172D-01  4.065D-02
    3.680000    1.6138766504625D-01  4.049D-02
    3.685000    1.6067126234999D-01  4.033D-02
    3.690000    1.5995501916231D-01  4.016D-02
    3.695000    1.5923899496782D-01  4.000D-02
    3.700000    1.5852324832789D-01  3.984D-02
    3.705000    1.5780783688255D-01  3.968D-02
    3.710000    1.5709281735277D-01  3.951D-02
    3.715000    1.5637824554304D-01  3.935D-02
    3.720000    1.5566417634429D-01  3.918D-02
    3.725000    1.5495066373709D-01  3.902D-02
    3.730000    1.5423776079521D-01  3.885D-02
    3.735000    1.5352551968943D-01  3.869D-02
    3.740000    1.5281399169159D-01  3.852D-02
    3.745000    1.5210322717900D-01  3.836D-02
    3.750000    1.5139327563898D-01  3.819D-02
    3.755000    1.5068418567375D-01  3.802D-02
    3.760000    1.4997600500552D-01  3.786D-02
    3.765000    1.4926878048171D-01  3.769D-02
    3.770000    1.4856255808053D-01  3.753D-02
    3.775000    1.4785738291668D-01  3.736D-02
    3.780000    1.4715329924719D-01  3.719D-02
    3.785000    1.4645035047757D-01  3.703D-02
    3.790000    1.4574857916800D-01  3.686D-02
    3.795000    1.4504802703977D-01  3.669D-02
    3.800000    1.4434873498185D-01  3.653D-02
    3.805000    1.4365074305761D-01  3.636D-02
    3.810000    1.4295409051163D-01  3.619D-02
    3.815000    1.4225881577670D-01  3.603D-02
    3.820000    1.4156495648093D-01  3.586D-02
    3.825000    1.4087254945498D-01  3.570D-02
    3.830000    1.4018163073931D-01  3.553D-02
    3.835000    1.3949223559168D-01  3.537D-02
    3.840000    1.3880439849462D-01  3.520D-02
    3.845000    1.3811815316302D-01  3.503D-02
    3.850000    1.3743353255183D-01  3.487D-02
    3.855000    1.3675056886381D-01  3.470D-02
    3.860000    1.3606929355732D-01  3.454D-02
    3.865000    1.3538973735423D-01  3.437D-02
    3.870000    1.3471193024782D-01  3.421D-02
    3.875000    1.3403590151078D-01  3.405D-02
    3.880000    1.3336167970323D-01  3.388D-02
    3.885000    1.3268929268079D-01  3.372D-02
    3.890000    1.3201876760266D-01  3.355D-02
    3.895000    1.3135013093974D-01  3.339D-02
    3.900000    1.3068340848282D-01  3.323D-02
    3.905000    1.3001862535071D-01  3.307D-02
    3.910000    1.2935580599844D-01  3.290D-02
    3.915000    1.2869497422544D-01  3.274D-02
    3.920000    1.2803615318374D-01  3.258D-02
    3.925000    1.2737936538622D-01  3.242D-02
    3.930000    1.2672463271473D-01  3.226D-02
    3.935000    1.2607197642837D-01  3.210D-02
    3.940000    1.2542141717160D-01  3.194D-02
    3.945000    1.2477297498250D-01  3.178D-02
    3.950000    1.2412666930086D-01  3.162D-02
    3.955000    1.2348251897636D-01  3.146D-02
    3.960000    1.2284054227668D-01  3.130D-02
    3.965000    1.2220075689561D-01  3.114D-02
    3.970000    1.2156317996110D-01  3.099D-02
    3.975000    1.2092782804334D-01  3.083D-02
    3.980000    1.2029471716271D-01  3.067D-02
    3.985000    1.1966386279783D-01  3.052D-02
    3.990000    1.1903527989341D-01  3.036D-02
    3.995000    1.1840898286824D-01  3.021D-02
    4.000000    1.1778498562296D-01  3.005D-02
    4.005000    1.1716330154797D-01  2.990D-02
    4.010000    1.1654394353110D-01  2.974D-02
    4.015000    1.1592692396540D-01  2.959D-02
    4.020000    1.1531225475680D-01  2.944D-02
    4.025000    1.1469994733171D-01  2.928D-02
    4.030000    1.1409001264461D-01  2.913D-02
    4.035000    1.1348246118558D-01  2.898D-02
    4.040000    1.1287730298772D-01  2.883D-02
    4.045000    1.1227454763461D-01  2.868D-02
    4.050000    1.1167420426762D-01  2.853D-02
    4.055000    1.1107628159321D-01  2.838D-02
    4.060000    1.1048078789017D-01  2.823D-02
    4.065000    1.0988773101679D-01  2.808D-02
    4.070000    1.0929711841795D-01  2.794D-02
    4.075000    1.0870895713217D-01  2.779D-02
    4.080000    1.0812325379863D-01  2.764D-02
    4.085000    1.0754001466403D-01  2.750D-02
    4.090000    1.0695924558948D-01  2.735D-02
    4.095000    1.0638095205728D-01  2.721D-02
    4.100000    1.0580513917764D-01  2.706D-02
    4.105000    1.0523181169532D-01  2.692D-02
    4.110000    1.0466097399626D-01  2.677D-02
    4.115000    1.0409263011403D-01  2.663D-02
    4.120000    1.0352678373636D-01  2.649D-02
    4.125000    1.0296343821145D-01  2.635D-02
    4.130000    1.0240259655434D-01  2.621D-02
    4.135000    1.0184426145312D-01  2.607D-02
    4.140000    1.0128843527513D-01  2.593D-02
    4.145000    1.0073512007305D-01  2.579D-02
    4.150000    1.0018431759092D-01  2.565D-02
    4.155000    9.9636029270164D-02  2.551D-02
    4.160000    9.9090256255420D-02  2.537D-02
    4.165000    9.8546999400414D-02  2.523D-02
    4.170000    9.8006259273696D-02  2.510D-02
    4.175000    9.7468036164332D-02  2.496D-02
    4.180000    9.6932330087525D-02  2.483D-02
    4.185000    9.6399140790160D-02  2.469D-02
    4.190000    9.5868467756282D-02  2.456D-02
    4.195000    9.5340310212509D-02  2.443D-02
    4.200000    9.4814667133370D-02  2.429D-02
    4.205000    9.4291537246576D-02  2.416D-02
    4.210000    9.3770919038223D-02  2.403D-02
    4.215000    9.3252810757927D-02  2.390D-02
    4.220000    9.2737210423886D-02  2.377D-02
    4.225000    9.2224115827881D-02  2.364D-02
    4.230000    9.1713524540206D-02  2.351D-02
    4.235000    9.1205433914529D-02  2.338D-02
    4.240000    9.0699841092689D-02  2.325D-02
    4.245000    9.0196743009422D-02  2.312D-02
    4.250000    8.9696136397030D-02  2.300D-02
    4.255000    8.9198017789969D-02  2.287D-02
    4.260000    8.8702383529391D-02  2.275D-02
    4.265000    8.8209229767601D-02  2.262D-02
    4.270000    8.7718552472463D-02  2.250D-02
    4.275000    8.7230347431740D-02  2.237D-02
    4.280000    8.6744610257361D-02  2.225D-02
    4.285000    8.6261336389641D-02  2.213D-02
    4.290000    8.5780521101421D-02  2.200D-02
    4.295000    8.5302159502157D-02  2.188D-02
    4.300000    8.4826246541946D-02  2.176D-02
    4.305000    8.4352777015485D-02  2.164D-02
    4.310000    8.3881745565976D-02  2.152D-02
    4.315000    8.3413146688967D-02  2.140D-02
    4.320000    8.2946974736133D-02  2.128D-02
    4.325000    8.2483223919002D-02  2.117D-02
    4.330000    8.2021888312618D-02  2.105D-02
    4.335000    8.1562961859146D-02  2.093D-02
    4.340000    8.1106438371424D-02  2.082D-02
    4.345000    8.0652311536455D-02  2.070D-02
    4.350000    8.0200574918839D-02  2.059D-02
    4.355000    7.9751221964159D-02  2.047D-02
    4.360000    7.9304246002301D-02  2.036D-02
    4.365000    7.8859640250727D-02  2.024D-02
    4.370000    7.8417397817690D-02  2.013D-02
    4.375000    7.7977511705396D-02  2.002D-02
    4.380000    7.7539974813117D-02  1.991D-02
    4.385000    7.7104779940246D-02  1.980D-02
    4.390000    7.6671919789302D-02  1.969D-02
    4.395000    7.6241386968886D-02  1.958D-02
    4.400000    7.5813173996586D-02  1.947D-02
    4.405000    7.5387273301829D-02  1.936D-02
    4.410000    7.4963677228686D-02  1.925D-02
    4.415000    7.4542378038631D-02  1.914D-02
    4.420000    7.4123367913243D-02  1.904D-02
    4.425000    7.3706638956870D-02  1.893D-02
    4.430000    7.3292183199241D-02  1.882D-02
    4.435000    7.2879992598033D-02  1.872D-02
    4.440000    7.2470059041388D-02  1.861D-02
    4.445000    7.2062374350393D-02  1.851D-02
    4.450000    7.1656930281506D-02  1.841D-02
    4.455000    7.1253718528946D-02  1.830D-02
    4.460000    7.0852730727030D-02  1.820D-02
    4.465000    7.0453958452480D-02  1.810D-02
    4.470000    7.0057393226671D-02  1.800D-02
    4.475000    6.9663026517855D-02  1.790D-02
    4.480000    6.9270849743325D-02  1.780D-02
    4.485000    6.8880854271557D-02  1.770D-02
    4.490000    6.8493031424296D-02  1.760D-02
    4.495000    6.8107372478609D-02  1.750D-02
    4.500000    6.7723868668903D-02  1.740D-02
    4.505000    6.7342511188896D-02  1.731D-02
    4.510000    6.6963291193552D-02  1.721D-02
    4.515000    6.6586199800986D-02  1.711D-02
    4.520000    6.6211228094319D-02  1.702D-02
    4.525000    6.5838367123511D-02  1.692D-02