
variables = "r", "B(r) ", "Uncertainty"
zone T = "State 1 B(r)   66N16p6q3Rf4_40_C6fr"

    0.001000   -5.2007861914743D-01     0.0
    0.002000   -5.2007861711255D-01     0.0
    0.003000   -5.2007861158927D-01     0.0
    0.004000   -5.2007860083341D-01     0.0
    0.005000   -5.2007858310080D-01     0.0
    0.006000   -5.2007855664724D-01     0.0
    0.007000   -5.2007851972852D-01     0.0
    0.008000   -5.2007847060044D-01     0.0
    0.009000   -5.2007840751882D-01     0.0
    0.010000   -5.2007832873950D-01     0.0
    0.011000   -5.2007823251825D-01     0.0
    0.012000   -5.2007811711089D-01     0.0
    0.013000   -5.2007798077325D-01     0.0
    0.014000   -5.2007782176111D-01     0.0
    0.015000   -5.2007763833032D-01     0.0
    0.016000   -5.2007742873671D-01     0.0
    0.017000   -5.2007719123607D-01     0.0
    0.018000   -5.2007692408428D-01     0.0
    0.019000   -5.2007662553712D-01     0.0
    0.020000   -5.2007629385048D-01     0.0
    0.021000   -5.2007592728021D-01     0.0
    0.022000   -5.2007552408218D-01     0.0
    0.023000   -5.2007508251224D-01     0.0
    0.024000   -5.2007460082632D-01     0.0
    0.025000   -5.2007407728029D-01     0.0
    0.026000   -5.2007351013008D-01     0.0
    0.027000   -5.2007289763163D-01     0.0
    0.028000   -5.2007223804087D-01     0.0
    0.029000   -5.2007152961380D-01     0.0
    0.030000   -5.2007077060641D-01     0.0
    0.031000   -5.2006995927468D-01     0.0
    0.032000   -5.2006909387472D-01     0.0
    0.033000   -5.2006817266254D-01     0.0
    0.034000   -5.2006719389425D-01     0.0
    0.035000   -5.2006615582598D-01     0.0
    0.036000   -5.2006505671392D-01     0.0
    0.037000   -5.2006389481424D-01     0.0
    0.038000   -5.2006266838316D-01     0.0
    0.039000   -5.2006137567700D-01     0.0
    0.040000   -5.2006001495206D-01     0.0
    0.041000   -5.2005858446466D-01     0.0
    0.042000   -5.2005708247126D-01     0.0
    0.043000   -5.2005550722829D-01     0.0
    0.044000   -5.2005385699230D-01     0.0
    0.045000   -5.2005213001981D-01     0.0
    0.046000   -5.2005032456747D-01     0.0
    0.047000   -5.2004843889195D-01     0.0
    0.048000   -5.2004647125001D-01     0.0
    0.049000   -5.2004441989846D-01     0.0
    0.050000   -5.2004228309419D-01     0.0
    0.051000   -5.2004005909417D-01     0.0
    0.052000   -5.2003774615540D-01     0.0
    0.053000   -5.2003534253504D-01     0.0
    0.054000   -5.2003284649025D-01     0.0
    0.055000   -5.2003025627834D-01     0.0
    0.056000   -5.2002757015668D-01     0.0
    0.057000   -5.2002478638273D-01     0.0
    0.058000   -5.2002190321404D-01     0.0
    0.059000   -5.2001891890831D-01     0.0
    0.060000   -5.2001583172327D-01     0.0
    0.061000   -5.2001263991683D-01     0.0
    0.062000   -5.2000934174699D-01     0.0
    0.063000   -5.2000593547181D-01     0.0
    0.064000   -5.2000241934955D-01     0.0
    0.065000   -5.1999879163854D-01     0.0
    0.066000   -5.1999505059729D-01     0.0
    0.067000   -5.1999119448439D-01     0.0
    0.068000   -5.1998722155860D-01     0.0
    0.069000   -5.1998313007879D-01     0.0
    0.070000   -5.1997891830403D-01     0.0
    0.071000   -5.1997458449350D-01     0.0
    0.072000   -5.1997012690651D-01     0.0
    0.073000   -5.1996554380260D-01     0.0
    0.074000   -5.1996083344143D-01     0.0
    0.075000   -5.1995599408282D-01     0.0
    0.076000   -5.1995102398679D-01     0.0
    0.077000   -5.1994592141353D-01     0.0
    0.078000   -5.1994068462342D-01     0.0
    0.079000   -5.1993531187701D-01     0.0
    0.080000   -5.1992980143507D-01     0.0
    0.081000   -5.1992415155855D-01     0.0
    0.082000   -5.1991836050861D-01     0.0
    0.083000   -5.1991242654663D-01     0.0
    0.084000   -5.1990634793417D-01     0.0
    0.085000   -5.1990012293308D-01     0.0
    0.086000   -5.1989374980537D-01     0.0
    0.087000   -5.1988722681329D-01     0.0
    0.088000   -5.1988055221939D-01     0.0
    0.089000   -5.1987372428639D-01     0.0
    0.090000   -5.1986674127728D-01     0.0
    0.091000   -5.1985960145534D-01     0.0
    0.092000   -5.1985230308407D-01     0.0
    0.093000   -5.1984484442725D-01     0.0
    0.094000   -5.1983722374893D-01     0.0
    0.095000   -5.1982943931346D-01     0.0
    0.096000   -5.1982148938545D-01     0.0
    0.097000   -5.1981337222983D-01     0.0
    0.098000   -5.1980508611180D-01     0.0
    0.099000   -5.1979662929687D-01     0.0
    0.100000   -5.1978800005089D-01     0.0
    0.101000   -5.1977919663998D-01     0.0
    0.102000   -5.1977021733065D-01     0.0
    0.103000   -5.1976106038965D-01     0.0
    0.104000   -5.1975172408414D-01     0.0
    0.105000   -5.1974220668164D-01     0.0
    0.106000   -5.1973250644997D-01     0.0
    0.107000   -5.1972262165730D-01     0.0
    0.108000   -5.1971255057222D-01     0.0
    0.109000   -5.1970229146368D-01     0.0
    0.110000   -5.1969184260096D-01     0.0
    0.111000   -5.1968120225379D-01     0.0
    0.112000   -5.1967036869223D-01     0.0
    0.113000   -5.1965934018685D-01     0.0
    0.114000   -5.1964811500849D-01     0.0
    0.115000   -5.1963669142854D-01     0.0
    0.116000   -5.1962506771871D-01     0.0
    0.117000   -5.1961324215119D-01     0.0
    0.118000   -5.1960121299865D-01     0.0
    0.119000   -5.1958897853410D-01     0.0
    0.120000   -5.1957653703109D-01     0.0
    0.121000   -5.1956388676365D-01     0.0
    0.122000   -5.1955102600622D-01     0.0
    0.123000   -5.1953795303373D-01     0.0
    0.124000   -5.1952466612164D-01     0.0
    0.125000   -5.1951116354584D-01     0.0
    0.126000   -5.1949744358282D-01     0.0
    0.127000   -5.1948350450949D-01     0.0
    0.128000   -5.1946934460333D-01     0.0
    0.129000   -5.1945496214232D-01     0.0
    0.130000   -5.1944035540501D-01     0.0
    0.131000   -5.1942552267048D-01     0.0
    0.132000   -5.1941046221839D-01     0.0
    0.133000   -5.1939517232890D-01     0.0
    0.134000   -5.1937965128280D-01     0.0
    0.135000   -5.1936389736145D-01     0.0
    0.136000   -5.1934790884681D-01     0.0
    0.137000   -5.1933168402143D-01     0.0
    0.138000   -5.1931522116842D-01     0.0
    0.139000   -5.1929851857162D-01     0.0
    0.140000   -5.1928157451537D-01     0.0
    0.141000   -5.1926438728474D-01     0.0
    0.142000   -5.1924695516539D-01     0.0
    0.143000   -5.1922927644369D-01     0.0
    0.144000   -5.1921134940662D-01     0.0
    0.145000   -5.1919317234186D-01     0.0
    0.146000   -5.1917474353778D-01     0.0
    0.147000   -5.1915606128340D-01     0.0
    0.148000   -5.1913712386851D-01     0.0
    0.149000   -5.1911792958357D-01     0.0
    0.150000   -5.1909847671975D-01     0.0
    0.151000   -5.1907876356900D-01     0.0
    0.152000   -5.1905878842397D-01     0.0
    0.153000   -5.1903854957809D-01     0.0
    0.154000   -5.1901804532553D-01     0.0
    0.155000   -5.1899727396127D-01     0.0
    0.156000   -5.1897623378101D-01     0.0
    0.157000   -5.1895492308130D-01     0.0
    0.158000   -5.1893334015946D-01     0.0
    0.159000   -5.1891148331363D-01     0.0
    0.160000   -5.1888935084283D-01     0.0
    0.161000   -5.1886694104683D-01     0.0
    0.162000   -5.1884425222627D-01     0.0
    0.163000   -5.1882128268267D-01     0.0
    0.164000   -5.1879803071842D-01     0.0
    0.165000   -5.1877449463678D-01     0.0
    0.166000   -5.1875067274188D-01     0.0
    0.167000   -5.1872656333875D-01     0.0
    0.168000   -5.1870216473335D-01     0.0
    0.169000   -5.1867747523257D-01     0.0
    0.170000   -5.1865249314421D-01     0.0
    0.171000   -5.1862721677702D-01     0.0
    0.172000   -5.1860164444073D-01     0.0
    0.173000   -5.1857577444598D-01     0.0
    0.174000   -5.1854960510442D-01     0.0
    0.175000   -5.1852313472872D-01     0.0
    0.176000   -5.1849636163253D-01     0.0
    0.177000   -5.1846928413047D-01     0.0
    0.178000   -5.1844190053824D-01     0.0
    0.179000   -5.1841420917256D-01     0.0
    0.180000   -5.1838620835118D-01     0.0
    0.181000   -5.1835789639295D-01     0.0
    0.182000   -5.1832927161773D-01     0.0
    0.183000   -5.1830033234651D-01     0.0
    0.184000   -5.1827107690135D-01     0.0
    0.185000   -5.1824150360549D-01     0.0
    0.186000   -5.1821161078317D-01     0.0
    0.187000   -5.1818139675983D-01     0.0
    0.188000   -5.1815085986207D-01     0.0
    0.189000   -5.1811999841759D-01     0.0
    0.190000   -5.1808881075532D-01     0.0
    0.191000   -5.1805729520531D-01     0.0
    0.192000   -5.1802545009885D-01     0.0
    0.193000   -5.1799327376844D-01     0.0
    0.194000   -5.1796076454777D-01     0.0
    0.195000   -5.1792792077176D-01     0.0
    0.196000   -5.1789474077658D-01     0.0
    0.197000   -5.1786122289969D-01     0.0
    0.198000   -5.1782736547976D-01     0.0
    0.199000   -5.1779316685679D-01     0.0
    0.200000   -5.1775862537207D-01     0.0
    0.201000   -5.1772373936818D-01     0.0
    0.202000   -5.1768850718901D-01     0.0
    0.203000   -5.1765292717985D-01     0.0
    0.204000   -5.1761699768724D-01     0.0
    0.205000   -5.1758071705917D-01     0.0
    0.206000   -5.1754408364498D-01     0.0
    0.207000   -5.1750709579535D-01     0.0
    0.208000   -5.1746975186243D-01     0.0
    0.209000   -5.1743205019974D-01     0.0
    0.210000   -5.1739398916225D-01     0.0
    0.211000   -5.1735556710636D-01     0.0
    0.212000   -5.1731678238991D-01     0.0
    0.213000   -5.1727763337229D-01     0.0
    0.214000   -5.1723811841425D-01     0.0
    0.215000   -5.1719823587814D-01     0.0
    0.216000   -5.1715798412776D-01     0.0
    0.217000   -5.1711736152846D-01     0.0
    0.218000   -5.1707636644715D-01     0.0
    0.219000   -5.1703499725225D-01     0.0
    0.220000   -5.1699325231376D-01     0.0
    0.221000   -5.1695113000329D-01     0.0
    0.222000   -5.1690862869401D-01     0.0
    0.223000   -5.1686574676071D-01     0.0
    0.224000   -5.1682248257982D-01     0.0
    0.225000   -5.1677883452939D-01     0.0
    0.226000   -5.1673480098914D-01     0.0
    0.227000   -5.1669038034042D-01     0.0
    0.228000   -5.1664557096633D-01     0.0
    0.229000   -5.1660037125161D-01     0.0
    0.230000   -5.1655477958273D-01     0.0
    0.231000   -5.1650879434788D-01     0.0
    0.232000   -5.1646241393700D-01     0.0
    0.233000   -5.1641563674181D-01     0.0
    0.234000   -5.1636846115573D-01     0.0
    0.235000   -5.1632088557403D-01     0.0
    0.236000   -5.1627290839375D-01     0.0
    0.237000   -5.1622452801379D-01     0.0
    0.238000   -5.1617574283482D-01     0.0
    0.239000   -5.1612655125939D-01     0.0
    0.240000   -5.1607695169190D-01     0.0
    0.241000   -5.1602694253863D-01     0.0
    0.242000   -5.1597652220777D-01     0.0
    0.243000   -5.1592568910942D-01     0.0
    0.244000   -5.1587444165554D-01     0.0
    0.245000   -5.1582277826011D-01     0.0
    0.246000   -5.1577069733898D-01     0.0
    0.247000   -5.1571819731006D-01     0.0
    0.248000   -5.1566527659318D-01     0.0
    0.249000   -5.1561193361023D-01     0.0
    0.250000   -5.1555816678503D-01     0.0
    0.251000   -5.1550397454351D-01     0.0
    0.252000   -5.1544935531362D-01     0.0
    0.253000   -5.1539430752536D-01     0.0
    0.254000   -5.1533882961082D-01     0.0
    0.255000   -5.1528292000421D-01     0.0
    0.256000   -5.1522657714181D-01     0.0
    0.257000   -5.1516979946207D-01     0.0
    0.258000   -5.1511258540555D-01     0.0
    0.259000   -5.1505493341499D-01     0.0
    0.260000   -5.1499684193528D-01     0.0
    0.261000   -5.1493830941357D-01     0.0
    0.262000   -5.1487933429914D-01     0.0
    0.263000   -5.1481991504351D-01     0.0
    0.264000   -5.1476005010049D-01     0.0
    0.265000   -5.1469973792611D-01     0.0
    0.266000   -5.1463897697870D-01     0.0
    0.267000   -5.1457776571884D-01     0.0
    0.268000   -5.1451610260946D-01     0.0
    0.269000   -5.1445398611579D-01     0.0
    0.270000   -5.1439141470539D-01     0.0
    0.271000   -5.1432838684824D-01     0.0
    0.272000   -5.1426490101664D-01     0.0
    0.273000   -5.1420095568526D-01     0.0
    0.274000   -5.1413654933127D-01     0.0
    0.275000   -5.1407168043415D-01     0.0
    0.276000   -5.1400634747591D-01     0.0
    0.277000   -5.1394054894099D-01     0.0
    0.278000   -5.1387428331631D-01     0.0
    0.279000   -5.1380754909128D-01     0.0
    0.280000   -5.1374034475781D-01     0.0
    0.281000   -5.1367266881039D-01     0.0
    0.282000   -5.1360451974595D-01     0.0
    0.283000   -5.1353589606410D-01     0.0
    0.284000   -5.1346679626696D-01     0.0
    0.285000   -5.1339721885927D-01     0.0
    0.286000   -5.1332716234836D-01     0.0
    0.287000   -5.1325662524424D-01     0.0
    0.288000   -5.1318560605952D-01     0.0
    0.289000   -5.1311410330951D-01     0.0
    0.290000   -5.1304211551218D-01     0.0
    0.291000   -5.1296964118822D-01     0.0
    0.292000   -5.1289667886105D-01     0.0
    0.293000   -5.1282322705678D-01     0.0
    0.294000   -5.1274928430433D-01     0.0
    0.295000   -5.1267484913538D-01     0.0
    0.296000   -5.1259992008437D-01     0.0
    0.297000   -5.1252449568858D-01     0.0
    0.298000   -5.1244857448808D-01     0.0
    0.299000   -5.1237215502584D-01     0.0
    0.300000   -5.1229523584767D-01     0.0
    0.301000   -5.1221781550222D-01     0.0
    0.302000   -5.1213989254109D-01     0.0
    0.303000   -5.1206146551876D-01     0.0
    0.304000   -5.1198253299268D-01     0.0
    0.305000   -5.1190309352324D-01     0.0
    0.306000   -5.1182314567376D-01     0.0
    0.307000   -5.1174268801062D-01     0.0
    0.308000   -5.1166171910313D-01     0.0
    0.309000   -5.1158023752371D-01     0.0
    0.310000   -5.1149824184777D-01     0.0
    0.311000   -5.1141573065377D-01     0.0
    0.312000   -5.1133270252326D-01     0.0
    0.313000   -5.1124915604094D-01     0.0
    0.314000   -5.1116508979456D-01     0.0
    0.315000   -5.1108050237504D-01     0.0
    0.316000   -5.1099539237644D-01     0.0
    0.317000   -5.1090975839603D-01     0.0
    0.318000   -5.1082359903421D-01     0.0
    0.319000   -5.1073691289463D-01     0.0
    0.320000   -5.1064969858414D-01     0.0
    0.321000   -5.1056195471290D-01     0.0
    0.322000   -5.1047367989426D-01     0.0
    0.323000   -5.1038487274486D-01     0.0
    0.324000   -5.1029553188473D-01     0.0
    0.325000   -5.1020565593712D-01     0.0
    0.326000   -5.1011524352867D-01     0.0
    0.327000   -5.1002429328938D-01     0.0
    0.328000   -5.0993280385261D-01     0.0
    0.329000   -5.0984077385513D-01     0.0
    0.330000   -5.0974820193715D-01     0.0
    0.331000   -5.0965508674224D-01     0.0
    0.332000   -5.0956142691750D-01     0.0
    0.333000   -5.0946722111346D-01     0.0
    0.334000   -5.0937246798416D-01     0.0
    0.335000   -5.0927716618718D-01     0.0
    0.336000   -5.0918131438357D-01     0.0
    0.337000   -5.0908491123797D-01     0.0
    0.338000   -5.0898795541855D-01     0.0
    0.339000   -5.0889044559713D-01     0.0
    0.340000   -5.0879238044909D-01     0.0
    0.341000   -5.0869375865344D-01     0.0
    0.342000   -5.0859457889283D-01     0.0
    0.343000   -5.0849483985363D-01     0.0
    0.344000   -5.0839454022578D-01     0.0
    0.345000   -5.0829367870307D-01     0.0
    0.346000   -5.0819225398288D-01     0.0
    0.347000   -5.0809026476642D-01     0.0
    0.348000   -5.0798770975861D-01     0.0
    0.349000   -5.0788458766815D-01     0.0
    0.350000   -5.0778089720758D-01     0.0
    0.351000   -5.0767663709323D-01     0.0
    0.352000   -5.0757180604527D-01     0.0
    0.353000   -5.0746640278775D-01     0.0
    0.354000   -5.0736042604856D-01     0.0
    0.355000   -5.0725387455951D-01     0.0
    0.356000   -5.0714674705631D-01     0.0
    0.357000   -5.0703904227863D-01     0.0
    0.358000   -5.0693075897009D-01     0.0
    0.359000   -5.0682189587828D-01     0.0
    0.360000   -5.0671245175476D-01     0.0
    0.361000   -5.0660242535513D-01     0.0
    0.362000   -5.0649181543903D-01     0.0
    0.363000   -5.0638062077013D-01     0.0
    0.364000   -5.0626884011621D-01     0.0
    0.365000   -5.0615647224908D-01     0.0
    0.366000   -5.0604351594471D-01     0.0
    0.367000   -5.0592996998320D-01     0.0
    0.368000   -5.0581583314879D-01     0.0
    0.369000   -5.0570110422990D-01     0.0
    0.370000   -5.0558578201911D-01     0.0
    0.371000   -5.0546986531324D-01     0.0
    0.372000   -5.0535335291334D-01     0.0
    0.373000   -5.0523624362470D-01     0.0
    0.374000   -5.0511853625687D-01     0.0
    0.375000   -5.0500022962373D-01     0.0
    0.376000   -5.0488132254341D-01     0.0
    0.377000   -5.0476181383842D-01     0.0
    0.378000   -5.0464170233559D-01     0.0
    0.379000   -5.0452098686610D-01     0.0
    0.380000   -5.0439966626558D-01     0.0
    0.381000   -5.0427773937401D-01     0.0
    0.382000   -5.0415520503581D-01     0.0
    0.383000   -5.0403206209990D-01     0.0
    0.384000   -5.0390830941956D-01     0.0
    0.385000   -5.0378394585267D-01     0.0
    0.386000   -5.0365897026153D-01     0.0
    0.387000   -5.0353338151303D-01     0.0
    0.388000   -5.0340717847857D-01     0.0
    0.389000   -5.0328036003412D-01     0.0
    0.390000   -5.0315292506024D-01     0.0
    0.391000   -5.0302487244208D-01     0.0
    0.392000   -5.0289620106948D-01     0.0
    0.393000   -5.0276690983684D-01     0.0
    0.394000   -5.0263699764327D-01     0.0
    0.395000   -5.0250646339254D-01     0.0
    0.396000   -5.0237530599319D-01     0.0
    0.397000   -5.0224352435841D-01     0.0
    0.398000   -5.0211111740616D-01     0.0
    0.399000   -5.0197808405914D-01     0.0
    0.400000   -5.0184442324494D-01     0.0
    0.401000   -5.0171013389578D-01     0.0
    0.402000   -5.0157521494887D-01     0.0
    0.403000   -5.0143966534614D-01     0.0
    0.404000   -5.0130348403448D-01     0.0
    0.405000   -5.0116666996561D-01     0.0
    0.406000   -5.0102922209613D-01     0.0
    0.407000   -5.0089113938761D-01     0.0
    0.408000   -5.0075242080656D-01     0.0
    0.409000   -5.0061306532445D-01     0.0
    0.410000   -5.0047307191767D-01     0.0
    0.411000   -5.0033243956773D-01     0.0
    0.412000   -5.0019116726104D-01     0.0
    0.413000   -5.0004925398915D-01     0.0
    0.414000   -4.9990669874861D-01     0.0
    0.415000   -4.9976350054105D-01     0.0
    0.416000   -4.9961965837325D-01     0.0
    0.417000   -4.9947517125706D-01     0.0
    0.418000   -4.9933003820951D-01     0.0
    0.419000   -4.9918425825273D-01     0.0
    0.420000   -4.9903783041412D-01     0.0
    0.421000   -4.9889075372619D-01     0.0
    0.422000   -4.9874302722673D-01     0.0
    0.423000   -4.9859464995873D-01     0.0
    0.424000   -4.9844562097046D-01     0.0
    0.425000   -4.9829593931545D-01     0.0
    0.426000   -4.9814560405256D-01     0.0
    0.427000   -4.9799461424592D-01     0.0
    0.428000   -4.9784296896503D-01     0.0
    0.429000   -4.9769066728474D-01     0.0
    0.430000   -4.9753770828527D-01     0.0
    0.431000   -4.9738409105224D-01     0.0
    0.432000   -4.9722981467668D-01     0.0
    0.433000   -4.9707487825504D-01     0.0
    0.434000   -4.9691928088926D-01     0.0
    0.435000   -4.9676302168671D-01     0.0
    0.436000   -4.9660609976029D-01     0.0
    0.437000   -4.9644851422838D-01     0.0
    0.438000   -4.9629026421492D-01     0.0
    0.439000   -4.9613134884937D-01     0.0
    0.440000   -4.9597176726681D-01     0.0
    0.441000   -4.9581151860781D-01     0.0
    0.442000   -4.9565060201866D-01     0.0
    0.443000   -4.9548901665123D-01     0.0
    0.444000   -4.9532676166301D-01     0.0
    0.445000   -4.9516383621719D-01     0.0
    0.446000   -4.9500023948265D-01     0.0
    0.447000   -4.9483597063395D-01     0.0
    0.448000   -4.9467102885137D-01     0.0
    0.449000   -4.9450541332100D-01     0.0
    0.450000   -4.9433912323455D-01     0.0
    0.451000   -4.9417215778967D-01     0.0
    0.452000   -4.9400451618972D-01     0.0
    0.453000   -4.9383619764388D-01     0.0
    0.454000   -4.9366720136720D-01     0.0
    0.455000   -4.9349752658056D-01     0.0
    0.456000   -4.9332717251073D-01     0.0
    0.457000   -4.9315613839036D-01     0.0
    0.458000   -4.9298442345803D-01     0.0
    0.459000   -4.9281202695825D-01     0.0
    0.460000   -4.9263894814146D-01     0.0
    0.461000   -4.9246518626409D-01     0.0
    0.462000   -4.9229074058855D-01     0.0
    0.463000   -4.9211561038325D-01     0.0
    0.464000   -4.9193979492265D-01     0.0
    0.465000   -4.9176329348723D-01     0.0
    0.466000   -4.9158610536353D-01     0.0
    0.467000   -4.9140822984418D-01     0.0
    0.468000   -4.9122966622792D-01     0.0
    0.469000   -4.9105041381959D-01     0.0
    0.470000   -4.9087047193018D-01     0.0
    0.471000   -4.9068983987681D-01     0.0
    0.472000   -4.9050851698280D-01     0.0
    0.473000   -4.9032650257766D-01     0.0
    0.474000   -4.9014379599709D-01     0.0
    0.475000   -4.8996039658303D-01     0.0
    0.476000   -4.8977630368364D-01     0.0
    0.477000   -4.8959151665342D-01     0.0
    0.478000   -4.8940603485307D-01     0.0
    0.479000   -4.8921985764960D-01     0.0
    0.480000   -4.8903298441638D-01     0.0
    0.481000   -4.8884541453309D-01     0.0
    0.482000   -4.8865714738576D-01     0.0
    0.483000   -4.8846818236682D-01     0.0
    0.484000   -4.8827851887504D-01     0.0
    0.485000   -4.8808815631561D-01     0.0
    0.486000   -4.8789709410020D-01     0.0
    0.487000   -4.8770533164687D-01     0.0
    0.488000   -4.8751286838012D-01     0.0
    0.489000   -4.8731970373099D-01     0.0
    0.490000   -4.8712583713698D-01     0.0
    0.491000   -4.8693126804210D-01     0.0
    0.492000   -4.8673599589690D-01     0.0
    0.493000   -4.8654002015847D-01     0.0
    0.494000   -4.8634334029047D-01     0.0
    0.495000   -4.8614595576312D-01     0.0
    0.496000   -4.8594786605330D-01     0.0
    0.497000   -4.8574907064441D-01     0.0
    0.498000   -4.8554956902660D-01     0.0
    0.499000   -4.8534936069655D-01     0.0
    0.500000   -4.8514844515771D-01     0.0
    0.501000   -4.8494682192014D-01     0.0
    0.502000   -4.8474449050062D-01     0.0
    0.503000   -4.8454145042271D-01     0.0
    0.504000   -4.8433770121659D-01     0.0
    0.505000   -4.8413324241929D-01     0.0
    0.506000   -4.8392807357457D-01     0.0
    0.507000   -4.8372219423295D-01     0.0
    0.508000   -4.8351560395181D-01     0.0
    0.509000   -4.8330830229527D-01     0.0
    0.510000   -4.8310028883438D-01     0.0
    0.511000   -4.8289156314694D-01     0.0
    0.512000   -4.8268212481767D-01     0.0
    0.513000   -4.8247197343819D-01     0.0
    0.514000   -4.8226110860698D-01     0.0
    0.515000   -4.8204952992945D-01     0.0
    0.516000   -4.8183723701791D-01     0.0
    0.517000   -4.8162422949169D-01     0.0
    0.518000   -4.8141050697701D-01     0.0
    0.519000   -4.8119606910709D-01     0.0
    0.520000   -4.8098091552217D-01     0.0
    0.521000   -4.8076504586946D-01     0.0
    0.522000   -4.8054845980321D-01     0.0
    0.523000   -4.8033115698474D-01     0.0
    0.524000   -4.8011313708236D-01     0.0
    0.525000   -4.7989439977154D-01     0.0
    0.526000   -4.7967494473474D-01     0.0
    0.527000   -4.7945477166159D-01     0.0
    0.528000   -4.7923388024882D-01     0.0
    0.529000   -4.7901227020027D-01     0.0
    0.530000   -4.7878994122698D-01     0.0
    0.531000   -4.7856689304708D-01     0.0
    0.532000   -4.7834312538594D-01     0.0
    0.533000   -4.7811863797609D-01     0.0
    0.534000   -4.7789343055724D-01     0.0
    0.535000   -4.7766750287641D-01     0.0
    0.536000   -4.7744085468776D-01     0.0
    0.537000   -4.7721348575275D-01     0.0
    0.538000   -4.7698539584010D-01     0.0
    0.539000   -4.7675658472579D-01     0.0
    0.540000   -4.7652705219311D-01     0.0
    0.541000   -4.7629679803265D-01     0.0
    0.542000   -4.7606582204234D-01     0.0
    0.543000   -4.7583412402740D-01     0.0
    0.544000   -4.7560170380046D-01     0.0
    0.545000   -4.7536856118146D-01     0.0
    0.546000   -4.7513469599774D-01     0.0
    0.547000   -4.7490010808404D-01     0.0
    0.548000   -4.7466479728247D-01     0.0
    0.549000   -4.7442876344260D-01     0.0
    0.550000   -4.7419200642141D-01     0.0
    0.551000   -4.7395452608332D-01     0.0
    0.552000   -4.7371632230021D-01     0.0
    0.553000   -4.7347739495145D-01     0.0
    0.554000   -4.7323774392385D-01     0.0
    0.555000   -4.7299736911177D-01     0.0
    0.556000   -4.7275627041703D-01     0.0
    0.557000   -4.7251444774902D-01     0.0
    0.558000   -4.7227190102462D-01     0.0
    0.559000   -4.7202863016830D-01     0.0
    0.560000   -4.7178463511204D-01     0.0
    0.561000   -4.7153991579543D-01     0.0
    0.562000   -4.7129447216568D-01     0.0
    0.563000   -4.7104830417749D-01     0.0
    0.564000   -4.7080141179329D-01     0.0
    0.565000   -4.7055379498302D-01     0.0
    0.566000   -4.7030545372436D-01     0.0
    0.567000   -4.7005638800254D-01     0.0
    0.568000   -4.6980659781053D-01     0.0
    0.569000   -4.6955608314890D-01     0.0
    0.570000   -4.6930484402596D-01     0.0
    0.571000   -4.6905288045766D-01     0.0
    0.572000   -4.6880019246767D-01     0.0
    0.573000   -4.6854678008741D-01     0.0
    0.574000   -4.6829264335597D-01     0.0
    0.575000   -4.6803778232020D-01     0.0
    0.576000   -4.6778219703473D-01     0.0
    0.577000   -4.6752588756190D-01     0.0
    0.578000   -4.6726885397184D-01     0.0
    0.579000   -4.6701109634246D-01     0.0
    0.580000   -4.6675261475946D-01     0.0
    0.581000   -4.6649340931634D-01     0.0
    0.582000   -4.6623348011445D-01     0.0
    0.583000   -4.6597282726287D-01     0.0
    0.584000   -4.6571145087858D-01     0.0
    0.585000   -4.6544935108642D-01     0.0
    0.586000   -4.6518652801904D-01     0.0
    0.587000   -4.6492298181695D-01     0.0
    0.588000   -4.6465871262856D-01     0.0
    0.589000   -4.6439372061015D-01     0.0
    0.590000   -4.6412800592586D-01     0.0
    0.591000   -4.6386156874781D-01     0.0
    0.592000   -4.6359440925595D-01     0.0
    0.593000   -4.6332652763816D-01     0.0
    0.594000   -4.6305792409031D-01     0.0
    0.595000   -4.6278859881612D-01     0.0
    0.596000   -4.6251855202732D-01     0.0
    0.597000   -4.6224778394359D-01     0.0
    0.598000   -4.6197629479253D-01     0.0
    0.599000   -4.6170408480974D-01     0.0
    0.600000   -4.6143115423883D-01     0.0
    0.601000   -4.6115750333133D-01     0.0
    0.602000   -4.6088313234683D-01     0.0
    0.603000   -4.6060804155289D-01     0.0
    0.604000   -4.6033223122508D-01     0.0
    0.605000   -4.6005570164704D-01     0.0
    0.606000   -4.5977845311038D-01     0.0
    0.607000   -4.5950048591475D-01     0.0
    0.608000   -4.5922180036789D-01     0.0
    0.609000   -4.5894239678555D-01     0.0
    0.610000   -4.5866227549157D-01     0.0
    0.611000   -4.5838143681781D-01     0.0
    0.612000   -4.5809988110424D-01     0.0
    0.613000   -4.5781760869888D-01     0.0
    0.614000   -4.5753461995788D-01     0.0
    0.615000   -4.5725091524545D-01     0.0
    0.616000   -4.5696649493391D-01     0.0
    0.617000   -4.5668135940367D-01     0.0
    0.618000   -4.5639550904326D-01     0.0
    0.619000   -4.5610894424936D-01     0.0
    0.620000   -4.5582166542673D-01     0.0
    0.621000   -4.5553367298827D-01     0.0
    0.622000   -4.5524496735502D-01     0.0
    0.623000   -4.5495554895618D-01     0.0
    0.624000   -4.5466541822908D-01     0.0
    0.625000   -4.5437457561921D-01     0.0
    0.626000   -4.5408302158017D-01     0.0
    0.627000   -4.5379075657381D-01     0.0
    0.628000   -4.5349778107010D-01     0.0
    0.629000   -4.5320409554717D-01     0.0
    0.630000   -4.5290970049136D-01     0.0
    0.631000   -4.5261459639717D-01     0.0
    0.632000   -4.5231878376729D-01     0.0
    0.633000   -4.5202226311260D-01     0.0
    0.634000   -4.5172503495220D-01     0.0
    0.635000   -4.5142709981337D-01     0.0
    0.636000   -4.5112845823159D-01     0.0
    0.637000   -4.5082911075055D-01     0.0
    0.638000   -4.5052905792215D-01     0.0
    0.639000   -4.5022830030651D-01     0.0
    0.640000   -4.4992683847201D-01     0.0
    0.641000   -4.4962467299516D-01     0.0
    0.642000   -4.4932180446077D-01     0.0
    0.643000   -4.4901823346183D-01     0.0
    0.644000   -4.4871396059961D-01     0.0
    0.645000   -4.4840898648360D-01     0.0
    0.646000   -4.4810331173149D-01     0.0
    0.647000   -4.4779693696924D-01     0.0
    0.648000   -4.4748986283106D-01     0.0
    0.649000   -4.4718208995938D-01     0.0
    0.650000   -4.4687361900491D-01     0.0
    0.651000   -4.4656445062655D-01     0.0
    0.652000   -4.4625458549150D-01     0.0
    0.653000   -4.4594402427521D-01     0.0
    0.654000   -4.4563276766136D-01     0.0
    0.655000   -4.4532081634188D-01     0.0
    0.656000   -4.4500817101702D-01     0.0
    0.657000   -4.4469483239517D-01     0.0
    0.658000   -4.4438080119309D-01     0.0
    0.659000   -4.4406607813576D-01     0.0
    0.660000   -4.4375066395640D-01     0.0
    0.661000   -4.4343455939649D-01     0.0
    0.662000   -4.4311776520581D-01     0.0
    0.663000   -4.4280028214238D-01     0.0
    0.664000   -4.4248211097245D-01     0.0
    0.665000   -4.4216325247060D-01     0.0
    0.666000   -4.4184370741959D-01     0.0
    0.667000   -4.4152347661051D-01     0.0
    0.668000   -4.4120256084266D-01     0.0
    0.669000   -4.4088096092365D-01     0.0
    0.670000   -4.4055867766929D-01     0.0
    0.671000   -4.4023571190371D-01     0.0
    0.672000   -4.3991206445923D-01     0.0
    0.673000   -4.3958773617650D-01     0.0
    0.674000   -4.3926272790436D-01     0.0
    0.675000   -4.3893704049995D-01     0.0
    0.676000   -4.3861067482865D-01     0.0
    0.677000   -4.3828363176405D-01     0.0
    0.678000   -4.3795591218805D-01     0.0
    0.679000   -4.3762751699076D-01     0.0