
variables = "r", "tA(r)", "Uncertainty"
zone T = "State 2 qA(r)  66N16p6q3Rf4_40     "

    1.500000   -1.5619776929740D-04  1.483D-05
    1.562500   -1.4965345605054D-04  1.421D-05
    1.625000   -1.4288210191430D-04  1.356D-05
    1.687500   -1.3591942856745D-04  1.290D-05
    1.750000   -1.2880315314924D-04  1.223D-05
    1.812500   -1.2157235142145D-04  1.154D-05
    1.875000   -1.1426680472288D-04  1.085D-05
    1.937500   -1.0692634987062D-04  1.015D-05
    2.000000   -9.9590250485153D-05  9.455D-06
    2.062500   -9.2296606708075D-05  8.762D-06
    2.125000   -8.5081818066188D-05  8.077D-06
    2.187500   -7.7980111479070D-05  7.403D-06
    2.250000   -7.1023143297520D-05  6.743D-06
    2.312500   -6.4239680994718D-05  6.099D-06
    2.375000   -5.7655366899288D-05  5.474D-06
    2.437500   -5.1292563327578D-05  4.870D-06
    2.500000   -4.5170275777819D-05  4.288D-06
    2.562500   -3.9304148590643D-05  3.731D-06
    2.625000   -3.3706525718543D-05  3.200D-06
    2.687500   -2.8386568003175D-05  2.695D-06
    2.750000   -2.3350417622179D-05  2.217D-06
    2.812500   -1.8601400097409D-05  1.766D-06
    2.875000   -1.4140254394823D-05  1.342D-06
    2.937500   -9.9653821211205D-06  9.461D-07
    3.000000   -6.0731075559550D-06  5.766D-07
    3.062500   -2.4579411740728D-06  2.333D-07
    3.125000    8.8715966298861D-07  8.422D-08
    3.187500    3.9705380948303D-06  3.770D-07
    3.250000    6.8015974150970D-06  6.457D-07
    3.312500    9.3905761603512D-06  8.915D-07
    3.375000    1.1748340871970D-05  1.115D-06
    3.437500    1.3886197935169D-05  1.318D-06
    3.500000    1.5815725178773D-05  1.501D-06
    3.562500    1.7548623315230D-05  1.666D-06
    3.625000    1.9096586810513D-05  1.813D-06
    3.687500    2.0471193391369D-05  1.943D-06
    3.750000    2.1683811113409D-05  2.059D-06
    3.812500    2.2745521716209D-05  2.159D-06
    3.875000    2.3667058868832D-05  2.247D-06
    3.937500    2.4458759848602D-05  2.322D-06
    4.000000    2.5130529185831D-05  2.386D-06
    4.062500    2.5691812836680D-05  2.439D-06
    4.125000    2.6151581505648D-05  2.483D-06
    4.187500    2.6518321819949D-05  2.518D-06
    4.250000    2.6800034153080D-05  2.544D-06
    4.312500    2.7004235998225D-05  2.564D-06
    4.375000    2.7137969899129D-05  2.576D-06
    4.437500    2.7207815052909D-05  2.583D-06
    4.500000    2.7219901803128D-05  2.584D-06
    4.562500    2.7179928340408D-05  2.580D-06
    4.625000    2.7093179020365D-05  2.572D-06
    4.687500    2.6964543793987D-05  2.560D-06
    4.750000    2.6798538323193D-05  2.544D-06
    4.812500    2.6599324424213D-05  2.525D-06
    4.875000    2.6370730543585D-05  2.504D-06
    4.937500    2.6116272026462D-05  2.479D-06
    5.000000    2.5839170984830D-05  2.453D-06
    5.062500    2.5542375614781D-05  2.425D-06
    5.125000    2.5228578847616D-05  2.395D-06
    5.187500    2.4900236249916D-05  2.364D-06
    5.250000    2.4559583113299D-05  2.332D-06
    5.312500    2.4208650695976D-05  2.298D-06
    5.375000    2.3849281595904D-05  2.264D-06
    5.437500    2.3483144249759D-05  2.229D-06
    5.500000    2.3111746563648D-05  2.194D-06
    5.562500    2.2736448690687D-05  2.159D-06
    5.625000    2.2358474977807D-05  2.123D-06
    5.687500    2.1978925109594D-05  2.087D-06
    5.750000    2.1598784480995D-05  2.051D-06
    5.812500    2.1218933833487D-05  2.014D-06
    5.875000    2.0840158191135D-05  1.978D-06
    5.937500    2.0463155133874D-05  1.943D-06
    6.000000    2.0088542445707D-05  1.907D-06
    6.062500    1.9716865175235D-05  1.872D-06
    6.125000    1.9348602145319D-05  1.837D-06
    6.187500    1.8984171947663D-05  1.802D-06
    6.250000    1.8623938456943D-05  1.768D-06
    6.312500    1.8268215897665D-05  1.734D-06
    6.375000    1.7917273495461D-05  1.701D-06
    6.437500    1.7571339742927D-05  1.668D-06
    6.500000    1.7230606308484D-05  1.636D-06
    6.562500    1.6895231615108D-05  1.604D-06
    6.625000    1.6565344114147D-05  1.573D-06
    6.687500    1.6241045277860D-05  1.542D-06
    6.750000    1.5922412332748D-05  1.512D-06
    6.812500    1.5609500754267D-05  1.482D-06
    6.875000    1.5302346542079D-05  1.453D-06
    6.937500    1.5000968293635D-05  1.424D-06
    7.000000    1.4705369092572D-05  1.396D-06
    7.062500    1.4415538227218D-05  1.369D-06
    7.125000    1.4131452753313D-05  1.342D-06
    7.187500    1.3853078913997D-05  1.315D-06
    7.250000    1.3580373429086D-05  1.289D-06
    7.312500    1.3313284664745D-05  1.264D-06
    7.375000    1.3051753693739D-05  1.239D-06
    7.437500    1.2795715255678D-05  1.215D-06
    7.500000    1.2545098625874D-05  1.191D-06
    7.562500    1.2299828400745D-05  1.168D-06
    7.625000    1.2059825207039D-05  1.145D-06
    7.687500    1.1825006341568D-05  1.123D-06
    7.750000    1.1595286347559D-05  1.101D-06
    7.812500    1.1370577533244D-05  1.079D-06
    7.875000    1.1150790437822D-05  1.059D-06
    7.937500    1.0935834249498D-05  1.038D-06
    8.000000    1.0725617179911D-05  1.018D-06
    8.062500    1.0520046798883D-05  9.987D-07
    8.125000    1.0319030333086D-05  9.797D-07
    8.187500    1.0122474931938D-05  9.610D-07
    8.250000    9.9302879037114D-06  9.428D-07
    8.312500    9.7423769246254D-06  9.249D-07
    8.375000    9.5586502234129D-06  9.075D-07
    8.437500    9.3790167436651D-06  8.904D-07
    8.500000    9.2033862860391D-06  8.737D-07
    8.562500    9.0316696322365D-06  8.574D-07
    8.625000    8.8637786524944D-06  8.415D-07
    8.687500    8.6996263981722D-06  8.259D-07
    8.750000    8.5391271808836D-06  8.107D-07
    8.812500    8.3821966394871D-06  7.958D-07
    8.875000    8.2287517961387D-06  7.812D-07
    8.937500    8.0787111024978D-06  7.670D-07
    9.000000    7.9319944770812D-06  7.530D-07
    9.062500    7.7885233346713D-06  7.394D-07
    9.125000    7.6482206086010D-06  7.261D-07
    9.187500    7.5110107666651D-06  7.131D-07
    9.250000    7.3768198213379D-06  7.003D-07
    9.312500    7.2455753349162D-06  6.879D-07
    9.375000    7.1172064201485D-06  6.757D-07
    9.437500    6.9916437368604D-06  6.638D-07
    9.500000    6.8688194850391D-06  6.521D-07
    9.562500    6.7486673947952D-06  6.407D-07
    9.625000    6.6311227135818D-06  6.295D-07
    9.687500    6.5161221910166D-06  6.186D-07
    9.750000    6.4036040616149D-06  6.079D-07
    9.812500    6.2935080257188D-06  5.975D-07
    9.875000    6.1857752288735D-06  5.873D-07
    9.937500    6.0803482398822D-06  5.772D-07
   10.000000    5.9771710277459D-06  5.675D-07
   10.062500    5.8761889376739D-06  5.579D-07
   10.125000    5.7773486663343D-06  5.485D-07
   10.187500    5.6805982364928D-06  5.393D-07
   10.250000    5.5858869711775D-06  5.303D-07
   10.312500    5.4931654674884D-06  5.215D-07
   10.375000    5.4023855701623D-06  5.129D-07
   10.437500    5.3135003449872D-06  5.044D-07
   10.500000    5.2264640521549D-06  4.962D-07
   10.562500    5.1412321196258D-06  4.881D-07
   10.625000    5.0577611165759D-06  4.802D-07
   10.687500    4.9760087269839D-06  4.724D-07
   10.750000    4.8959337234130D-06  4.648D-07
   10.812500    4.8174959410319D-06  4.574D-07
   10.875000    4.7406562519164D-06  4.501D-07
   10.937500    4.6653765396665D-06  4.429D-07
   11.000000    4.5916196743687D-06  4.359D-07
   11.062500    4.5193494879303D-06  4.291D-07
   11.125000    4.4485307498063D-06  4.223D-07
   11.187500    4.3791291431392D-06  4.157D-07
   11.250000    4.3111112413244D-06  4.093D-07
   11.312500    4.2444444850167D-06  4.030D-07
   11.375000    4.1790971595847D-06  3.968D-07
   11.437500    4.1150383730231D-06  3.907D-07
   11.500000    4.0522380343259D-06  3.847D-07
   11.562500    3.9906668323270D-06  3.789D-07
   11.625000    3.9302962150073D-06  3.731D-07
   11.687500    3.8710983692709D-06  3.675D-07
   11.750000    3.8130462011881D-06  3.620D-07
   11.812500    3.7561133167050D-06  3.566D-07
   11.875000    3.7002740028140D-06  3.513D-07
   11.937500    3.6455032091850D-06  3.461D-07
   12.000000    3.5917765302493D-06  3.410D-07
   12.062500    3.5390701877324D-06  3.360D-07
   12.125000    3.4873610136306D-06  3.311D-07
   12.187500    3.4366264336227D-06  3.263D-07
   12.250000    3.3868444509129D-06  3.215D-07
   12.312500    3.3379936304944D-06  3.169D-07
   12.375000    3.2900530838296D-06  3.123D-07
   12.437500    3.2430024539361D-06  3.079D-07
   12.500000    3.1968219008730D-06  3.035D-07
   12.562500    3.1514920876175D-06  2.992D-07
   12.625000    3.1069941663250D-06  2.950D-07
   12.687500    3.0633097649634D-06  2.908D-07
   12.750000    3.0204209743139D-06  2.867D-07
   12.812500    2.9783103353294D-06  2.828D-07
   12.875000    2.9369608268428D-06  2.788D-07
   12.937500    2.8963558536161D-06  2.750D-07
   13.000000    2.8564792347225D-06  2.712D-07
   13.062500    2.8173151922531D-06  2.675D-07
   13.125000    2.7788483403401D-06  2.638D-07
   13.187500    2.7410636744884D-06  2.602D-07
   13.250000    2.7039465612076D-06  2.567D-07
   13.312500    2.6674827279365D-06  2.532D-07
   13.375000    2.6316582532528D-06  2.498D-07
   13.437500    2.5964595573595D-06  2.465D-07
   13.500000    2.5618733928417D-06  2.432D-07
   13.562500    2.5278868356851D-06  2.400D-07
   13.625000    2.4944872765504D-06  2.368D-07
   13.687500    2.4616624122959D-06  2.337D-07
   13.750000    2.4294002377406D-06  2.306D-07
   13.812500    2.3976890376633D-06  2.276D-07
   13.875000    2.3665173790279D-06  2.247D-07
   13.937500    2.3358741034320D-06  2.218D-07
   14.000000    2.3057483197693D-06  2.189D-07
   14.062500    2.2761293971023D-06  2.161D-07
   14.125000    2.2470069577371D-06  2.133D-07
   14.187500    2.2183708704963D-06  2.106D-07
   14.250000    2.1902112441826D-06  2.079D-07
   14.312500    2.1625184212297D-06  2.053D-07
   14.375000    2.1352829715327D-06  2.027D-07
   14.437500    2.1084956864543D-06  2.002D-07
   14.500000    2.0821475730016D-06  1.977D-07
   14.562500    2.0562298481677D-06  1.952D-07
   14.625000    2.0307339334342D-06  1.928D-07
   14.687500    2.0056514494293D-06  1.904D-07
   14.750000    1.9809742107370D-06  1.881D-07
   14.812500    1.9566942208532D-06  1.858D-07
   14.875000    1.9328036672841D-06  1.835D-07
   14.937500    1.9092949167834D-06  1.813D-07
   15.000000    1.8861605107226D-06  1.791D-07
   15.062500    1.8633931605925D-06  1.769D-07
   15.125000    1.8409857436308D-06  1.748D-07
   15.187500    1.8189312985719D-06  1.727D-07
   15.250000    1.7972230215164D-06  1.706D-07
   15.312500    1.7758542619156D-06  1.686D-07
   15.375000    1.7548185186684D-06  1.666D-07
   15.437500    1.7341094363267D-06  1.646D-07
   15.500000    1.7137208014068D-06  1.627D-07
   15.562500    1.6936465388028D-06  1.608D-07
   15.625000    1.6738807082998D-06  1.589D-07
   15.687500    1.6544175011831D-06  1.571D-07
   15.750000    1.6352512369421D-06  1.552D-07
   15.812500    1.6163763600635D-06  1.535D-07
   15.875000    1.5977874369147D-06  1.517D-07
   15.937500    1.5794791527108D-06  1.500D-07
   16.000000    1.5614463085664D-06  1.482D-07
   16.062500    1.5436838186269D-06  1.466D-07
   16.125000    1.5261867072790D-06  1.449D-07
   16.187500    1.5089501064365D-06  1.433D-07
   16.250000    1.4919692529006D-06  1.416D-07
   16.312500    1.4752394857910D-06  1.401D-07
   16.375000    1.4587562440471D-06  1.385D-07
   16.437500    1.4425150639969D-06  1.369D-07
   16.500000    1.4265115769909D-06  1.354D-07
   16.562500    1.4107415071001D-06  1.339D-07
   16.625000    1.3952006688753D-06  1.325D-07
   16.687500    1.3798849651671D-06  1.310D-07
   16.750000    1.3647903850036D-06  1.296D-07
   16.812500    1.3499130015248D-06  1.282D-07
   16.875000    1.3352489699722D-06  1.268D-07
   16.937500    1.3207945257316D-06  1.254D-07
   17.000000    1.3065459824275D-06  1.240D-07
   17.062500    1.2924997300682D-06  1.227D-07
   17.125000    1.2786522332398D-06  1.214D-07
   17.187500    1.2650000293474D-06  1.201D-07
   17.250000    1.2515397269027D-06  1.188D-07
   17.312500    1.2382680038563D-06  1.176D-07
   17.375000    1.2251816059734D-06  1.163D-07
   17.437500    1.2122773452526D-06  1.151D-07
   17.500000    1.1995520983844D-06  1.139D-07
   17.562500    1.1870028052510D-06  1.127D-07
   17.625000    1.1746264674644D-06  1.115D-07
   17.687500    1.1624201469418D-06  1.104D-07
   17.750000    1.1503809645183D-06  1.092D-07
   17.812500    1.1385060985953D-06  1.081D-07
   17.875000    1.1267927838225D-06  1.070D-07
   17.937500    1.1152383098149D-06  1.059D-07
   18.000000    1.1038400199017D-06  1.048D-07
   18.062500    1.0925953099072D-06  1.037D-07
   18.125000    1.0815016269625D-06  1.027D-07
   18.187500    1.0705564683478D-06  1.016D-07
   18.250000    1.0597573803631D-06  1.006D-07
   18.312500    1.0491019572280D-06  9.960D-08
   18.375000    1.0385878400089D-06  9.860D-08
   18.437500    1.0282127155730D-06  9.762D-08
   18.500000    1.0179743155685D-06  9.664D-08
   18.562500    1.0078704154304D-06  9.568D-08
   18.625000    9.9789883341066D-07  9.474D-08
   18.687500    9.8805742963291D-07  9.380D-08
   18.750000    9.7834410516999D-07  9.288D-08
   18.812500    9.6875680114470D-07  9.197D-08
   18.875000    9.5929349785250D-07  9.107D-08
   18.937500    9.4995221390577D-07  9.019D-08
   19.000000    9.4073100539910D-07  8.931D-08
   19.062500    9.3162796509489D-07  8.845D-08
   19.125000    9.2264122162888D-07  8.759D-08
   19.187500    9.1376893873493D-07  8.675D-08
   19.250000    9.0500931448865D-07  8.592D-08
   19.312500    8.9636058056933D-07  8.510D-08
   19.375000    8.8782100153966D-07  8.429D-08
   19.437500    8.7938887414275D-07  8.349D-08
   19.500000    8.7106252661616D-07  8.270D-08
   19.562500    8.6284031802219D-07  8.192D-08
   19.625000    8.5472063759430D-07  8.114D-08
   19.687500    8.4670190409908D-07  8.038D-08
   19.750000    8.3878256521329D-07  7.963D-08
   19.812500    8.3096109691583D-07  7.889D-08
   19.875000    8.2323600289396D-07  7.816D-08
   19.937500    8.1560581396364D-07  7.743D-08
   20.000000    8.0806908750332D-07  7.672D-08
   20.062500    8.0062440690132D-07  7.601D-08
   20.125000    7.9327038101586D-07  7.531D-08
   20.187500    7.8600564364783D-07  7.462D-08
   20.250000    7.7882885302598D-07  7.394D-08
   20.312500    7.7173869130370D-07  7.327D-08
   20.375000    7.6473386406789D-07  7.260D-08
   20.437500    7.5781309985890D-07  7.194D-08
   20.500000    7.5097514970167D-07  7.130D-08
   20.562500    7.4421878664759D-07  7.065D-08
   20.625000    7.3754280532697D-07  7.002D-08
   20.687500    7.3094602151165D-07  6.939D-08
   20.750000    7.2442727168764D-07  6.877D-08
   20.812500    7.1798541263755D-07  6.816D-08
   20.875000    7.1161932103239D-07  6.756D-08
   20.937500    7.0532789303273D-07  6.696D-08
   21.000000    6.9911004389886D-07  6.637D-08
   21.062500    6.9296470760966D-07  6.579D-08
   21.125000    6.8689083649016D-07  6.521D-08
   21.187500    6.8088740084736D-07  6.464D-08
   21.250000    6.7495338861431D-07  6.408D-08
   21.312500    6.6908780500198D-07  6.352D-08
   21.375000    6.6328967215910D-07  6.297D-08
   21.437500    6.5755802883933D-07  6.243D-08
   21.500000    6.5189193007597D-07  6.189D-08
   21.562500    6.4629044686382D-07  6.136D-08
   21.625000    6.4075266584799D-07  6.083D-08
   21.687500    6.3527768901970D-07  6.031D-08
   21.750000    6.2986463341858D-07  5.980D-08
   21.812500    6.2451263084166D-07  5.929D-08
   21.875000    6.1922082755859D-07  5.879D-08
   21.937500    6.1398838403309D-07  5.829D-08
   22.000000    6.0881447465055D-07  5.780D-08
   22.062500    6.0369828745137D-07  5.731D-08
   22.125000    5.9863902387025D-07  5.683D-08
   22.187500    5.9363589848093D-07  5.636D-08
   22.250000    5.8868813874656D-07  5.589D-08
   22.312500    5.8379498477539D-07  5.542D-08
   22.375000    5.7895568908160D-07  5.496D-08
   22.437500    5.7416951635144D-07  5.451D-08
   22.500000    5.6943574321412D-07  5.406D-08
   22.562500    5.6475365801779D-07  5.362D-08
   22.625000    5.6012256061011D-07  5.318D-08
   22.687500    5.5554176212352D-07  5.274D-08
   22.750000    5.5101058476510D-07  5.231D-08
   22.812500    5.4652836161074D-07  5.189D-08
   22.875000    5.4209443640378D-07  5.146D-08
   22.937500    5.3770816335767D-07  5.105D-08
   23.000000    5.3336890696301D-07  5.064D-08
   23.062500    5.2907604179839D-07  5.023D-08
   23.125000    5.2482895234529D-07  4.983D-08
   23.187500    5.2062703280675D-07  4.943D-08
   23.250000    5.1646968692993D-07  4.903D-08
   23.312500    5.1235632783212D-07  4.864D-08
   23.375000    5.0828637783056D-07  4.826D-08
   23.437500    5.0425926827559D-07  4.787D-08
   23.500000    5.0027443938734D-07  4.749D-08
   23.562500    4.9633134009566D-07  4.712D-08
   23.625000    4.9242942788344D-07  4.675D-08
   23.687500    4.8856816863297D-07  4.638D-08
   23.750000    4.8474703647562D-07  4.602D-08
   23.812500    4.8096551364431D-07  4.566D-08
   23.875000    4.7722309032925D-07  4.531D-08
   23.937500    4.7351926453633D-07  4.495D-08
   24.000000    4.6985354194859D-07  4.461D-08
   24.062500    4.6622543579025D-07  4.426D-08
   24.125000    4.6263446669370D-07  4.392D-08
   24.187500    4.5908016256892D-07  4.358D-08
   24.250000    4.5556205847567D-07  4.325D-08
   24.312500    4.5207969649816D-07  4.292D-08
   24.375000    4.4863262562221D-07  4.259D-08
   24.437500    4.4522040161485D-07  4.227D-08
   24.500000    4.4184258690625D-07  4.195D-08
   24.562500    4.3849875047414D-07  4.163D-08
   24.625000    4.3518846773027D-07  4.132D-08
   24.687500    4.3191132040927D-07  4.100D-08
   24.750000    4.2866689645967D-07  4.070D-08
   24.812500    4.2545478993692D-07  4.039D-08
   24.875000    4.2227460089868D-07  4.009D-08
   24.937500    4.1912593530201D-07  3.979D-08
   25.000000    4.1600840490261D-07  3.949D-08
   25.062500    4.1292162715601D-07  3.920D-08
   25.125000    4.0986522512065D-07  3.891D-08
   25.187500    4.0683882736281D-07  3.862D-08
   25.250000    4.0384206786349D-07  3.834D-08
   25.312500    4.0087458592686D-07  3.806D-08
   25.375000    3.9793602609069D-07  3.778D-08
   25.437500    3.9502603803832D-07  3.750D-08
   25.500000    3.9214427651239D-07  3.723D-08
   25.562500    3.8929040123022D-07  3.696D-08
   25.625000    3.8646407680074D-07  3.669D-08
   25.687500    3.8366497264305D-07  3.642D-08
   25.750000    3.8089276290646D-07  3.616D-08
   25.812500    3.7814712639210D-07  3.590D-08
   25.875000    3.7542774647594D-07  3.564D-08
   25.937500    3.7273431103331D-07  3.539D-08
   26.000000    3.7006651236480D-07  3.513D-08
   26.062500    3.6742404712355D-07  3.488D-08
   26.125000    3.6480661624390D-07  3.463D-08
   26.187500    3.6221392487138D-07  3.439D-08
   26.250000    3.5964568229399D-07  3.414D-08
   26.312500    3.5710160187469D-07  3.390D-08
   26.375000    3.5458140098526D-07  3.366D-08
   26.437500    3.5208480094129D-07  3.343D-08
   26.500000    3.4961152693839D-07  3.319D-08
   26.562500    3.4716130798955D-07  3.296D-08
   26.625000    3.4473387686371D-07  3.273D-08
   26.687500    3.4232897002539D-07  3.250D-08
   26.750000    3.3994632757542D-07  3.227D-08
   26.812500    3.3758569319279D-07  3.205D-08
   26.875000    3.3524681407756D-07  3.183D-08
   26.937500    3.3292944089473D-07  3.161D-08
   27.000000    3.3063332771920D-07  3.139D-08
   27.062500    3.2835823198170D-07  3.117D-08
   27.125000    3.2610391441570D-07  3.096D-08
   27.187500    3.2387013900525D-07  3.075D-08
   27.250000    3.2165667293375D-07  3.054D-08
   27.312500    3.1946328653370D-07  3.033D-08
   27.375000    3.1728975323726D-07  3.012D-08
   27.437500    3.1513584952778D-07  2.992D-08
   27.500000    3.1300135489209D-07  2.972D-08
   27.562500    3.1088605177376D-07  2.951D-08
   27.625000    3.0878972552702D-07  2.932D-08
   27.687500    3.0671216437169D-07  2.912D-08
   27.750000    3.0465315934876D-07  2.892D-08
   27.812500    3.0261250427680D-07  2.873D-08
   27.875000    3.0058999570912D-07  2.854D-08
   27.937500    2.9858543289172D-07  2.835D-08
   28.000000    2.9659861772192D-07  2.816D-08
   28.062500    2.9462935470778D-07  2.797D-08
   28.125000    2.9267745092812D-07  2.779D-08
   28.187500    2.9074271599337D-07  2.760D-08
   28.250000    2.8882496200697D-07  2.742D-08
   28.312500    2.8692400352753D-07  2.724D-08
   28.375000    2.8503965753158D-07  2.706D-08
   28.437500    2.8317174337705D-07  2.688D-08
   28.500000    2.8132008276723D-07  2.671D-08
   28.562500    2.7948449971550D-07  2.653D-08
   28.625000    2.7766482051056D-07  2.636D-08
   28.687500    2.7586087368233D-07  2.619D-08
   28.750000    2.7407248996839D-07  2.602D-08
   28.812500    2.7229950228094D-07  2.585D-08
   28.875000    2.7054174567447D-07  2.568D-08
   28.937500    2.6879905731379D-07  2.552D-08
   29.000000    2.6707127644276D-07  2.535D-08
   29.062500    2.6535824435346D-07  2.519D-08
   29.125000    2.6365980435587D-07  2.503D-08
   29.187500    2.6197580174818D-07  2.487D-08
   29.250000    2.6030608378740D-07  2.471D-08
   29.312500    2.5865049966064D-07  2.456D-08
   29.375000    2.5700890045680D-07  2.440D-08
   29.437500    2.5538113913869D-07  2.425D-08
   29.500000    2.5376707051567D-07  2.409D-08
   29.562500    2.5216655121678D-07  2.394D-08
   29.625000    2.5057943966422D-07  2.379D-08
   29.687500    2.4900559604730D-07  2.364D-08
   29.750000    2.4744488229689D-07  2.349D-08
   29.812500    2.4589716206015D-07  2.334D-08
   29.875000    2.4436230067586D-07  2.320D-08
   29.937500    2.4284016514999D-07  2.305D-08
   30.000000    2.4133062413178D-07  2.291D-08
   30.062500    2.3983354789010D-07  2.277D-08
   30.125000    2.3834880829031D-07  2.263D-08
   30.187500    2.3687627877147D-07  2.249D-08
   30.250000    2.3541583432386D-07  2.235D-08
   30.312500    2.3396735146688D-07  2.221D-08
   30.375000    2.3253070822741D-07  2.208D-08
   30.437500    2.3110578411835D-07  2.194D-08
   30.500000    2.2969246011768D-07  2.181D-08
   30.562500    2.2829061864772D-07  2.167D-08
   30.625000    2.2690014355476D-07  2.154D-08
   30.687500    2.2552092008913D-07  2.141D-08
   30.750000    2.2415283488534D-07  2.128D-08
   30.812500    2.2279577594284D-07  2.115D-08
   30.875000    2.2144963260683D-07  2.102D-08
   30.937500    2.2011429554954D-07  2.090D-08
   31.000000    2.1878965675171D-07  2.077D-08
   31.062500    2.1747560948441D-07  2.065D-08
   31.125000    2.1617204829117D-07  2.052D-08
   31.187500    2.1487886897029D-07  2.040D-08
   31.250000    2.1359596855759D-07  2.028D-08
   31.312500    2.1232324530924D-07  2.016D-08
   31.375000    2.1106059868506D-07  2.004D-08
   31.437500    2.0980792933189D-07  1.992D-08
   31.500000    2.0856513906738D-07  1.980D-08
   31.562500    2.0733213086392D-07  1.968D-08
   31.625000    2.0610880883287D-07  1.957D-08
   31.687500    2.0489507820907D-07  1.945D-08
   31.750000    2.0369084533547D-07  1.934D-08
   31.812500    2.0249601764817D-07  1.922D-08
   31.875000    2.0131050366152D-07  1.911D-08
   31.937500    2.0013421295356D-07  1.900D-08
   32.000000    1.9896705615167D-07  1.889D-08
   32.062500    1.9780894491838D-07  1.878D-08
   32.125000    1.9665979193751D-07  1.867D-08
   32.187500    1.9551951090034D-07  1.856D-08
   32.250000    1.9438801649225D-07  1.845D-08
   32.312500    1.9326522437925D-07  1.835D-08
   32.375000    1.9215105119503D-07  1.824D-08
   32.437500    1.9104541452802D-07  1.814D-08
   32.500000    1.8994823290860D-07  1.803D-08
   32.562500    1.8885942579670D-07  1.793D-08
   32.625000    1.8777891356943D-07  1.783D-08
   32.687500    1.8670661750893D-07  1.773D-08
   32.750000    1.8564245979047D-07  1.762D-08
   32.812500    1.8458636347059D-07  1.752D-08
   32.875000    1.8353825247560D-07  1.742D-08
   32.937500    1.8249805159006D-07  1.733D-08
   33.000000    1.8146568644562D-07  1.723D-08
   33.062500    1.8044108350985D-07  1.713D-08
   33.125000    1.7942417007539D-07  1.703D-08
   33.187500    1.7841487424915D-07  1.694D-08
   33.250000    1.7741312494171D-07  1.684D-08
   33.312500    1.7641885185693D-07  1.675D-08
   33.375000    1.7543198548158D-07  1.665D-08
   33.437500    1.7445245707529D-07  1.656D-08
   33.500000    1.7348019866050D-07  1.647D-08
   33.562500    1.7251514301265D-07  1.638D-08
   33.625000    1.7155722365050D-07  1.629D-08
   33.687500    1.7060637482654D-07  1.620D-08
   33.750000    1.6966253151760D-07  1.611D-08
   33.812500    1.6872562941561D-07  1.602D-08
   33.875000    1.6779560491836D-07  1.593D-08
   33.937500    1.6687239512060D-07  1.584D-08
   34.000000    1.6595593780509D-07  1.576D-08
   34.062500    1.6504617143394D-07  1.567D-08
   34.125000    1.6414303513986D-07  1.558D-08
   34.187500    1.6324646871777D-07  1.550D-08
   34.250000    1.6235641261640D-07  1.541D-08
   34.312500    1.6147280793002D-07  1.533D-08
   34.375000    1.6059559639030D-07  1.525D-08
   34.437500    1.5972472035832D-07  1.516D-08
   34.500000    1.5886012281666D-07  1.508D-08
   34.562500    1.5800174736157D-07  1.500D-08
   34.625000    1.5714953819538D-07  1.492D-08
   34.687500    1.5630344011883D-07  1.484D-08
   34.750000    1.5546339852366D-07  1.476D-08
   34.812500    1.5462935938525D-07  1.468D-08
   34.875000    1.5380126925538D-07  1.460D-08
   34.937500    1.5297907525503D-07  1.452D-08
   35.000000    1.5216272506741D-07  1.445D-08
   35.062500    1.5135216693094D-07  1.437D-08
   35.125000    1.5054734963245D-07  1.429D-08
   35.187500    1.4974822250038D-07  1.422D-08
   35.250000    1.4895473539815D-07  1.414D-08
   35.312500    1.4816683871759D-07  1.407D-08
   35.375000    1.4738448337247D-07  1.399D-08
   35.437500    1.4660762079209D-07  1.392D-08
   35.500000    1.4583620291501D-07  1.385D-08
   35.562500    1.4507018218282D-07  1.377D-08
   35.625000    1.4430951153407D-07  1.370D-08
   35.687500    1.4355414439815D-07  1.363D-08
   35.750000    1.4280403468939D-07  1.356D-08
   35.812500    1.4205913680119D-07  1.349D-08
   35.875000    1.4131940560022D-07  1.342D-08
   35.937500    1.4058479642070D-07  1.335D-08
   36.000000    1.3985526505877D-07  1.328D-08
   36.062500    1.3913076776694D-07  1.321D-08
   36.125000    1.3841126124864D-07  1.314D-08
   36.187500    1.3769670265276D-07  1.307D-08
   36.250000    1.3698704956833D-07  1.301D-08
   36.312500    1.3628226001932D-07  1.294D-08
   36.375000    1.3558229245942D-07  1.287D-08
   36.437500    1.3488710576686D-07  1.281D-08
   36.500000    1.3419665923946D-07  1.274D-08
   36.562500    1.3351091258963D-07  1.268D-08
   36.625000    1.3282982593941D-07  1.261D-08
   36.687500    1.3215335981568D-07  1.255D-08
   36.750000    1.3148147514534D-07  1.248D-08
   36.812500    1.3081413325063D-07  1.242D-08
   36.875000    1.3015129584448D-07  1.236D-08
   36.937500    1.2949292502585D-07  1.229D-08
   37.000000    1.2883898327530D-07  1.223D-08
   37.062500    1.2818943345049D-07  1.217D-08
   37.125000    1.2754423878169D-07  1.211D-08
   37.187500    1.2690336286759D-07  1.205D-08
   37.250000    1.2626676967088D-07  1.199D-08
   37.312500    1.2563442351403D-07  1.193D-08
   37.375000    1.2500628907518D-07  1.187D-08
   37.437500    1.2438233138394D-07  1.181D-08
   37.500000    1.2376251581740D-07  1.175D-08
   37.562500    1.2314680809602D-07  1.169D-08
   37.625000    1.2253517427975D-07  1.163D-08
   37.687500    1.2192758076409D-07  1.158D-08
   37.750000    1.2132399427622D-07  1.152D-08
   37.812500    1.2072438187121D-07  1.146D-08
   37.875000    1.2012871092823D-07  1.140D-08
   37.937500    1.1953694914691D-07  1.135D-08
   38.000000    1.1894906454359D-07  1.129D-08
   38.062500    1.1836502544777D-07  1.124D-08
   38.125000    1.1778480049855D-07  1.118D-08
   38.187500    1.1720835864102D-07  1.113D-08
   38.250000    1.1663566912292D-07  1.107D-08
   38.312500    1.1606670149109D-07  1.102D-08
   38.375000    1.1550142558816D-07  1.097D-08
   38.437500    1.1493981154919D-07  1.091D-08
   38.500000    1.1438182979834D-07  1.086D-08
   38.562500    1.1382745104568D-07  1.081D-08
   38.625000    1.1327664628387D-07  1.075D-08
   38.687500    1.1272938678511D-07  1.070D-08
   38.750000    1.1218564409795D-07  1.065D-08
   38.812500    1.1164539004415D-07  1.060D-08
   38.875000    1.1110859671571D-07  1.055D-08
   38.937500    1.1057523647181D-07  1.050D-08
   39.000000    1.1004528193585D-07  1.045D-08
   39.062500    1.0951870599249D-07  1.040D-08
   39.125000    1.0899548178479D-07  1.035D-08
   39.187500    1.0847558271128D-07  1.030D-08
   39.250000    1.0795898242322D-07  1.025D-08
   39.312500    1.0744565482172D-07  1.020D-08
   39.375000    1.0693557405504D-07  1.015D-08
   39.437500    1.0642871451585D-07  1.010D-08
   39.500000    1.0592505083855D-07  1.006D-08
   39.562500    1.0542455789659D-07  1.001D-08
   39.625000    1.0492721079985D-07  9.961D-09
   39.687500    1.0443298489212D-07  9.915D-09
   39.750000    1.0394185574843D-07  9.868D-09
   39.812500    1.0345379917263D-07  9.822D-09
   39.875000    1.0296879119484D-07  9.776D-09
   39.937500    1.0248680806899D-07  9.730D-09
   40.000000    1.0200782627040D-07  9.684D-09
   40.062500    1.0153182249339D-07  9.639D-09
   40.125000    1.0105877364889D-07  9.594D-09
   40.187500    1.0058865686210D-07  9.550D-09
   40.250000    1.0012144947016D-07  9.505D-09
   40.312500    9.9657129019918D-08  9.461D-09
   40.375000    9.9195673265618D-08  9.417D-09
   40.437500    9.8737060166700D-08  9.374D-09
   40.500000    9.8281267885582D-08  9.331D-09
   40.562500    9.7828274785485D-08  9.288D-09
   40.625000    9.7378059428304D-08  9.245D-09
   40.687500    9.6930600572478D-08  9.202D-09
   40.750000    9.6485877170862D-08  9.160D-09
   40.812500    9.6043868368696D-08  9.118D-09
   40.875000    9.5604553501556D-08  9.076D-09
   40.937500    9.5167912093313D-08  9.035D-09
   41.000000    9.4733923854131D-08  8.994D-09
   41.062500    9.4302568678521D-08  8.953D-09
   41.125000    9.3873826643389D-08  8.912D-09
   41.187500    9.3447678006064D-08  8.872D-09