
variables = "r", "UA(r)", "Uncertainty"
zone T = "State 1 UA(r)  66N16p6q3Rf4_40C3ReD"

    1.350000    1.0863490155816D+00  1.863D-01
    1.355000    1.0847272771437D+00  1.862D-01
    1.360000    1.0830786111719D+00  1.861D-01
    1.365000    1.0814027452918D+00  1.860D-01
    1.370000    1.0796994083977D+00  1.858D-01
    1.375000    1.0779683307801D+00  1.857D-01
    1.380000    1.0762092442550D+00  1.856D-01
    1.385000    1.0744218822960D+00  1.854D-01
    1.390000    1.0726059801696D+00  1.853D-01
    1.395000    1.0707612750723D+00  1.851D-01
    1.400000    1.0688875062706D+00  1.850D-01
    1.405000    1.0669844152440D+00  1.848D-01
    1.410000    1.0650517458300D+00  1.847D-01
    1.415000    1.0630892443718D+00  1.845D-01
    1.420000    1.0610966598690D+00  1.844D-01
    1.425000    1.0590737441299D+00  1.842D-01
    1.430000    1.0570202519273D+00  1.840D-01
    1.435000    1.0549359411562D+00  1.839D-01
    1.440000    1.0528205729937D+00  1.837D-01
    1.445000    1.0506739120620D+00  1.835D-01
    1.450000    1.0484957265931D+00  1.834D-01
    1.455000    1.0462857885962D+00  1.832D-01
    1.460000    1.0440438740273D+00  1.830D-01
    1.465000    1.0417697629607D+00  1.828D-01
    1.470000    1.0394632397630D+00  1.826D-01
    1.475000    1.0371240932695D+00  1.825D-01
    1.480000    1.0347521169616D+00  1.823D-01
    1.485000    1.0323471091473D+00  1.821D-01
    1.490000    1.0299088731431D+00  1.819D-01
    1.495000    1.0274372174579D+00  1.817D-01
    1.500000    1.0249319559782D+00  1.815D-01
    1.505000    1.0223929081560D+00  1.813D-01
    1.510000    1.0198198991970D+00  1.810D-01
    1.515000    1.0172127602515D+00  1.808D-01
    1.520000    1.0145713286062D+00  1.806D-01
    1.525000    1.0118954478769D+00  1.804D-01
    1.530000    1.0091849682038D+00  1.802D-01
    1.535000    1.0064397464460D+00  1.799D-01
    1.540000    1.0036596463788D+00  1.797D-01
    1.545000    1.0008445388908D+00  1.795D-01
    1.550000    9.9799430218247D-01  1.792D-01
    1.555000    9.9510882196467D-01  1.790D-01
    1.560000    9.9218799165841D-01  1.787D-01
    1.565000    9.8923171259461D-01  1.785D-01
    1.570000    9.8623989421429D-01  1.782D-01
    1.575000    9.8321245426882D-01  1.780D-01
    1.580000    9.8014931902024D-01  1.777D-01
    1.585000    9.7705042344133D-01  1.774D-01
    1.590000    9.7391571141546D-01  1.772D-01
    1.595000    9.7074513593593D-01  1.769D-01
    1.600000    9.6753865930464D-01  1.766D-01
    1.605000    9.6429625333006D-01  1.763D-01
    1.610000    9.6101789952413D-01  1.761D-01
    1.615000    9.5770358929808D-01  1.758D-01
    1.620000    9.5435332415693D-01  1.755D-01
    1.625000    9.5096711589245D-01  1.752D-01
    1.630000    9.4754498677446D-01  1.749D-01
    1.635000    9.4408696974022D-01  1.746D-01
    1.640000    9.4059310858176D-01  1.742D-01
    1.645000    9.3706345813097D-01  1.739D-01
    1.650000    9.3349808444211D-01  1.736D-01
    1.655000    9.2989706497174D-01  1.733D-01
    1.660000    9.2626048875571D-01  1.729D-01
    1.665000    9.2258845658307D-01  1.726D-01
    1.670000    9.1888108116659D-01  1.723D-01
    1.675000    9.1513848730985D-01  1.719D-01
    1.680000    9.1136081207047D-01  1.716D-01
    1.685000    9.0754820491944D-01  1.712D-01
    1.690000    9.0370082789616D-01  1.709D-01
    1.695000    8.9981885575914D-01  1.705D-01
    1.700000    8.9590247613192D-01  1.701D-01
    1.705000    8.9195188964421D-01  1.698D-01
    1.710000    8.8796731006783D-01  1.694D-01
    1.715000    8.8394896444728D-01  1.690D-01
    1.720000    8.7989709322477D-01  1.686D-01
    1.725000    8.7581195035938D-01  1.682D-01
    1.730000    8.7169380344013D-01  1.678D-01
    1.735000    8.6754293379280D-01  1.674D-01
    1.740000    8.6335963658015D-01  1.670D-01
    1.745000    8.5914422089547D-01  1.666D-01
    1.750000    8.5489700984894D-01  1.662D-01
    1.755000    8.5061834064695D-01  1.657D-01
    1.760000    8.4630856466384D-01  1.653D-01
    1.765000    8.4196804750591D-01  1.649D-01
    1.770000    8.3759716906760D-01  1.644D-01
    1.775000    8.3319632357943D-01  1.640D-01
    1.780000    8.2876591964761D-01  1.635D-01
    1.785000    8.2430638028504D-01  1.631D-01
    1.790000    8.1981814293351D-01  1.626D-01
    1.795000    8.1530165947685D-01  1.621D-01
    1.800000    8.1075739624496D-01  1.617D-01
    1.805000    8.0618583400822D-01  1.612D-01
    1.810000    8.0158746796251D-01  1.607D-01
    1.815000    7.9696280770421D-01  1.602D-01
    1.820000    7.9231237719536D-01  1.597D-01
    1.825000    7.8763671471855D-01  1.592D-01
    1.830000    7.8293637282153D-01  1.587D-01
    1.835000    7.7821191825124D-01  1.582D-01
    1.840000    7.7346393187724D-01  1.576D-01
    1.845000    7.6869300860431D-01  1.571D-01
    1.850000    7.6389975727411D-01  1.566D-01
    1.855000    7.5908480055571D-01  1.560D-01
    1.860000    7.5424877482498D-01  1.555D-01
    1.865000    7.4939233003268D-01  1.549D-01
    1.870000    7.4451612956102D-01  1.544D-01
    1.875000    7.3962085006890D-01  1.538D-01
    1.880000    7.3470718132541D-01  1.532D-01
    1.885000    7.2977582603174D-01  1.527D-01
    1.890000    7.2482749963144D-01  1.521D-01
    1.895000    7.1986293010881D-01  1.515D-01
    1.900000    7.1488285777565D-01  1.509D-01
    1.905000    7.0988803504605D-01  1.503D-01
    1.910000    7.0487922619954D-01  1.497D-01
    1.915000    6.9985720713231D-01  1.491D-01
    1.920000    6.9482276509671D-01  1.484D-01
    1.925000    6.8977669842900D-01  1.478D-01
    1.930000    6.8471981626540D-01  1.472D-01
    1.935000    6.7965293824650D-01  1.465D-01
    1.940000    6.7457689421015D-01  1.459D-01
    1.945000    6.6949252387281D-01  1.452D-01
    1.950000    6.6440067649964D-01  1.446D-01
    1.955000    6.5930221056330D-01  1.439D-01
    1.960000    6.5419799339166D-01  1.432D-01
    1.965000    6.4908890080458D-01  1.426D-01
    1.970000    6.4397581673993D-01  1.419D-01
    1.975000    6.3885963286900D-01  1.412D-01
    1.980000    6.3374124820154D-01  1.405D-01
    1.985000    6.2862156868058D-01  1.398D-01
    1.990000    6.2350150676739D-01  1.391D-01
    1.995000    6.1838198101670D-01  1.383D-01
    2.000000    6.1326391564247D-01  1.376D-01
    2.005000    6.0814824007452D-01  1.369D-01
    2.010000    6.0303588850633D-01  1.361D-01
    2.015000    5.9792779943423D-01  1.354D-01
    2.020000    5.9282491518843D-01  1.346D-01
    2.025000    5.8772818145606D-01  1.339D-01
    2.030000    5.8263854679675D-01  1.331D-01
    2.035000    5.7755696215100D-01  1.324D-01
    2.040000    5.7248438034178D-01  1.316D-01
    2.045000    5.6742175556967D-01  1.308D-01
    2.050000    5.6237004290207D-01  1.300D-01
    2.055000    5.5733019775680D-01  1.292D-01
    2.060000    5.5230317538057D-01  1.284D-01
    2.065000    5.4728993032272D-01  1.276D-01
    2.070000    5.4229141590477D-01  1.268D-01
    2.075000    5.3730858368615D-01  1.260D-01
    2.080000    5.3234238292661D-01  1.251D-01
    2.085000    5.2739376004590D-01  1.243D-01
    2.090000    5.2246365808104D-01  1.235D-01
    2.095000    5.1755301614180D-01  1.226D-01
    2.100000    5.1266276886494D-01  1.218D-01
    2.105000    5.0779384586754D-01  1.209D-01
    2.110000    5.0294717120021D-01  1.200D-01
    2.115000    4.9812366280051D-01  1.192D-01
    2.120000    4.9332423194716D-01  1.183D-01
    2.125000    4.8854978271565D-01  1.174D-01
    2.130000    4.8380121143573D-01  1.165D-01
    2.135000    4.7907940615138D-01  1.156D-01
    2.140000    4.7438524608373D-01  1.147D-01
    2.145000    4.6971960109755D-01  1.138D-01
    2.150000    4.6508333117189D-01  1.129D-01
    2.155000    4.6047728587531D-01  1.120D-01
    2.160000    4.5590230384638D-01  1.111D-01
    2.165000    4.5135921227985D-01  1.101D-01
    2.170000    4.4684882641924D-01  1.092D-01
    2.175000    4.4237194905620D-01  1.083D-01
    2.180000    4.3792937003723D-01  1.073D-01
    2.185000    4.3352186577842D-01  1.064D-01
    2.190000    4.2915019878851D-01  1.054D-01
    2.195000    4.2481511720099D-01  1.045D-01
    2.200000    4.2051735431566D-01  1.035D-01
    2.205000    4.1625762815014D-01  1.026D-01
    2.210000    4.1203664100185D-01  1.016D-01
    2.215000    4.0785507902098D-01  1.006D-01
    2.220000    4.0371361179482D-01  9.963D-02
    2.225000    3.9961289194398D-01  9.864D-02
    2.230000    3.9555355473100D-01  9.765D-02
    2.235000    3.9153621768163D-01  9.666D-02
    2.240000    3.8756148021932D-01  9.566D-02
    2.245000    3.8362992331327D-01  9.466D-02
    2.250000    3.7974210914051D-01  9.366D-02
    2.255000    3.7589858076222D-01  9.265D-02
    2.260000    3.7209986181479D-01  9.164D-02
    2.265000    3.6834645621591D-01  9.062D-02
    2.270000    3.6463884788599D-01  8.960D-02
    2.275000    3.6097750048524D-01  8.858D-02
    2.280000    3.5736285716663D-01  8.755D-02
    2.285000    3.5379534034509D-01  8.653D-02
    2.290000    3.5027535148311D-01  8.549D-02
    2.295000    3.4680327089296D-01  8.446D-02
    2.300000    3.4337945755582D-01  8.342D-02
    2.305000    3.4000424895787D-01  8.238D-02
    2.310000    3.3667796094357D-01  8.134D-02
    2.315000    3.3340088758630D-01  8.029D-02
    2.320000    3.3017330107635D-01  7.925D-02
    2.325000    3.2699545162652D-01  7.820D-02
    2.330000    3.2386756739520D-01  7.715D-02
    2.335000    3.2078985442720D-01  7.610D-02
    2.340000    3.1776249661214D-01  7.504D-02
    2.345000    3.1478565566052D-01  7.398D-02
    2.350000    3.1185947109747D-01  7.293D-02
    2.355000    3.0898406027406D-01  7.187D-02
    2.360000    3.0615951839612D-01  7.081D-02
    2.365000    3.0338591857057D-01  6.975D-02
    2.370000    3.0066331186898D-01  6.869D-02
    2.375000    2.9799172740844D-01  6.762D-02
    2.380000    2.9537117244938D-01  6.656D-02
    2.385000    2.9280163251038D-01  6.550D-02
    2.390000    2.9028307149956D-01  6.444D-02
    2.395000    2.8781543186249D-01  6.337D-02
    2.400000    2.8539863474633D-01  6.231D-02
    2.405000    2.8303258018000D-01  6.125D-02
    2.410000    2.8071714726997D-01  6.018D-02
    2.415000    2.7845219441155D-01  5.912D-02
    2.420000    2.7623755951530D-01  5.806D-02
    2.425000    2.7407306024818D-01  5.700D-02
    2.430000    2.7195849428919D-01  5.594D-02
    2.435000    2.6989363959916D-01  5.488D-02
    2.440000    2.6787825470410D-01  5.382D-02
    2.445000    2.6591207899210D-01  5.277D-02
    2.450000    2.6399483302301D-01  5.171D-02
    2.455000    2.6212621885070D-01  5.066D-02
    2.460000    2.6030592035746D-01  4.961D-02
    2.465000    2.5853360359997D-01  4.856D-02
    2.470000    2.5680891716655D-01  4.751D-02
    2.475000    2.5513149254520D-01  4.647D-02
    2.480000    2.5350094450180D-01  4.543D-02
    2.485000    2.5191687146827D-01  4.439D-02
    2.490000    2.5037885593996D-01  4.335D-02
    2.495000    2.4888646488193D-01  4.232D-02
    2.500000    2.4743925014355D-01  4.129D-02
    2.505000    2.4603674888094D-01  4.027D-02
    2.510000    2.4467848398678D-01  3.924D-02
    2.515000    2.4336396452692D-01  3.823D-02
    2.520000    2.4209268618327D-01  3.721D-02
    2.525000    2.4086413170258D-01  3.620D-02
    2.530000    2.3967777135046D-01  3.520D-02
    2.535000    2.3853306337012D-01  3.419D-02
    2.540000    2.3742945444546D-01  3.320D-02
    2.545000    2.3636638016788D-01  3.221D-02
    2.550000    2.3534326550623D-01  3.122D-02
    2.555000    2.3435952527965D-01  3.024D-02
    2.560000    2.3341456463247D-01  2.926D-02
    2.565000    2.3250777951091D-01  2.829D-02
    2.570000    2.3163855714103D-01  2.733D-02
    2.575000    2.3080627650729D-01  2.637D-02
    2.580000    2.3001030883148D-01  2.542D-02
    2.585000    2.2925001805138D-01  2.448D-02
    2.590000    2.2852476129869D-01  2.354D-02
    2.595000    2.2783388937579D-01  2.262D-02
    2.600000    2.2717674723098D-01  2.170D-02
    2.605000    2.2655267443150D-01  2.079D-02
    2.610000    2.2596100563419D-01  1.988D-02
    2.615000    2.2540107105319D-01  1.899D-02
    2.620000    2.2487219692422D-01  1.811D-02
    2.625000    2.2437370596526D-01  1.723D-02
    2.630000    2.2390491783298D-01  1.637D-02
    2.635000    2.2346514957473D-01  1.553D-02
    2.640000    2.2305371607561D-01  1.469D-02
    2.645000    2.2266993050030D-01  1.387D-02
    2.650000    2.2231310472933D-01  1.307D-02
    2.655000    2.2198254978946D-01  1.229D-02
    2.660000    2.2167757627776D-01  1.153D-02
    2.665000    2.2139749477922D-01  1.079D-02
    2.670000    2.2114161627751D-01  1.008D-02
    2.675000    2.2090925255865D-01  9.404D-03
    2.680000    2.2069971660731D-01  8.764D-03
    2.685000    2.2051232299549D-01  8.168D-03
    2.690000    2.2034638826339D-01  7.625D-03
    2.695000    2.2020123129213D-01  7.144D-03
    2.700000    2.2007617366832D-01  6.736D-03
    2.705000    2.1997054004002D-01  6.411D-03
    2.710000    2.1988365846414D-01  6.181D-03
    2.715000    2.1981486074502D-01  6.052D-03
    2.720000    2.1976348276401D-01  6.029D-03
    2.725000    2.1972886479996D-01  6.110D-03
    2.730000    2.1971035184051D-01  6.287D-03
    2.735000    2.1970729388398D-01  6.550D-03
    2.740000    2.1971904623190D-01  6.887D-03
    2.745000    2.1974496977196D-01  7.285D-03
    2.750000    2.1978443125140D-01  7.733D-03
    2.755000    2.1983680354071D-01  8.219D-03
    2.760000    2.1990146588772D-01  8.736D-03
    2.765000    2.1997780416183D-01  9.276D-03
    2.770000    2.2006521108865D-01  9.834D-03
    2.775000    2.2016308647469D-01  1.041D-02
    2.780000    2.2027083742246D-01  1.099D-02
    2.785000    2.2038787853575D-01  1.157D-02
    2.790000    2.2051363211513D-01  1.217D-02
    2.795000    2.2064752834388D-01  1.276D-02
    2.800000    2.2078900546416D-01  1.335D-02
    2.805000    2.2093750994367D-01  1.395D-02
    2.810000    2.2109249663274D-01  1.454D-02
    2.815000    2.2125342891195D-01  1.513D-02
    2.820000    2.2141977883044D-01  1.572D-02
    2.825000    2.2159102723484D-01  1.630D-02
    2.830000    2.2176666388915D-01  1.688D-02
    2.835000    2.2194618758535D-01  1.745D-02
    2.840000    2.2212910624527D-01  1.802D-02
    2.845000    2.2231493701341D-01  1.858D-02
    2.850000    2.2250320634118D-01  1.914D-02
    2.855000    2.2269345006248D-01  1.969D-02
    2.860000    2.2288521346091D-01  2.024D-02
    2.865000    2.2307805132857D-01  2.077D-02
    2.870000    2.2327152801684D-01  2.130D-02
    2.875000    2.2346521747909D-01  2.183D-02
    2.880000    2.2365870330555D-01  2.235D-02
    2.885000    2.2385157875056D-01  2.286D-02
    2.890000    2.2404344675232D-01  2.336D-02
    2.895000    2.2423391994525D-01  2.386D-02
    2.900000    2.2442262066527D-01  2.434D-02
    2.905000    2.2460918094807D-01  2.483D-02
    2.910000    2.2479324252061D-01  2.530D-02
    2.915000    2.2497445678598D-01  2.577D-02
    2.920000    2.2515248480183D-01  2.623D-02
    2.925000    2.2532699725264D-01  2.668D-02
    2.930000    2.2549767441581D-01  2.712D-02
    2.935000    2.2566420612201D-01  2.756D-02
    2.940000    2.2582629170978D-01  2.799D-02
    2.945000    2.2598363997469D-01  2.841D-02
    2.950000    2.2613596911318D-01  2.882D-02
    2.955000    2.2628300666129D-01  2.923D-02
    2.960000    2.2642448942855D-01  2.963D-02
    2.965000    2.2656016342705D-01  3.002D-02
    2.970000    2.2668978379606D-01  3.041D-02
    2.975000    2.2681311472224D-01  3.078D-02
    2.980000    2.2692992935576D-01  3.115D-02
    2.985000    2.2704000972238D-01  3.152D-02
    2.990000    2.2714314663181D-01  3.187D-02
    2.995000    2.2723913958241D-01  3.222D-02
    3.000000    2.2732779666249D-01  3.256D-02
    3.005000    2.2740893444839D-01  3.289D-02
    3.010000    2.2748237789943D-01  3.322D-02
    3.015000    2.2754796025006D-01  3.354D-02
    3.020000    2.2760552289916D-01  3.385D-02
    3.025000    2.2765491529691D-01  3.415D-02
    3.030000    2.2769599482922D-01  3.445D-02
    3.035000    2.2772862669990D-01  3.474D-02
    3.040000    2.2775268381085D-01  3.503D-02
    3.045000    2.2776804664030D-01  3.530D-02
    3.050000    2.2777460311929D-01  3.557D-02
    3.055000    2.2777224850654D-01  3.584D-02
    3.060000    2.2776088526198D-01  3.609D-02
    3.065000    2.2774042291880D-01  3.634D-02
    3.070000    2.2771077795450D-01  3.658D-02
    3.075000    2.2767187366077D-01  3.682D-02
    3.080000    2.2762364001266D-01  3.705D-02
    3.085000    2.2756601353676D-01  3.728D-02
    3.090000    2.2749893717899D-01  3.749D-02
    3.095000    2.2742236017168D-01  3.770D-02
    3.100000    2.2733623790040D-01  3.791D-02
    3.105000    2.2724053177045D-01  3.811D-02
    3.110000    2.2713520907321D-01  3.830D-02
    3.115000    2.2702024285245D-01  3.848D-02
    3.120000    2.2689561177071D-01  3.866D-02
    3.125000    2.2676129997582D-01  3.884D-02
    3.130000    2.2661729696766D-01  3.901D-02
    3.135000    2.2646359746535D-01  3.917D-02
    3.140000    2.2630020127483D-01  3.933D-02
    3.145000    2.2612711315696D-01  3.948D-02
    3.150000    2.2594434269631D-01  3.962D-02
    3.155000    2.2575190417060D-01  3.976D-02
    3.160000    2.2554981642092D-01  3.990D-02
    3.165000    2.2533810272285D-01  4.002D-02
    3.170000    2.2511679065846D-01  4.015D-02
    3.175000    2.2488591198932D-01  4.026D-02
    3.180000    2.2464550253058D-01  4.038D-02
    3.185000    2.2439560202617D-01  4.048D-02
    3.190000    2.2413625402515D-01  4.059D-02
    3.195000    2.2386750575934D-01  4.068D-02
    3.200000    2.2358940802222D-01  4.078D-02
    3.205000    2.2330201504914D-01  4.086D-02
    3.210000    2.2300538439894D-01  4.094D-02
    3.215000    2.2269957683701D-01  4.102D-02
    3.220000    2.2238465621978D-01  4.109D-02
    3.225000    2.2206068938075D-01  4.116D-02
    3.230000    2.2172774601803D-01  4.123D-02
    3.235000    2.2138589858348D-01  4.128D-02
    3.240000    2.2103522217342D-01  4.134D-02
    3.245000    2.2067579442104D-01  4.139D-02
    3.250000    2.2030769539035D-01  4.143D-02
    3.255000    2.1993100747196D-01  4.148D-02
    3.260000    2.1954581528041D-01  4.151D-02
    3.265000    2.1915220555331D-01  4.154D-02
    3.270000    2.1875026705222D-01  4.157D-02
    3.275000    2.1834009046521D-01  4.160D-02
    3.280000    2.1792176831125D-01  4.162D-02
    3.285000    2.1749539484631D-01  4.163D-02
    3.290000    2.1706106597134D-01  4.165D-02
    3.295000    2.1661887914188D-01  4.166D-02
    3.300000    2.1616893327964D-01  4.166D-02
    3.305000    2.1571132868571D-01  4.166D-02
    3.310000    2.1524616695569D-01  4.166D-02
    3.315000    2.1477355089654D-01  4.165D-02
    3.320000    2.1429358444528D-01  4.165D-02
    3.325000    2.1380637258942D-01  4.163D-02
    3.330000    2.1331202128919D-01  4.162D-02
    3.335000    2.1281063740165D-01  4.160D-02
    3.340000    2.1230232860639D-01  4.157D-02
    3.345000    2.1178720333316D-01  4.155D-02
    3.350000    2.1126537069118D-01  4.152D-02
    3.355000    2.1073694040019D-01  4.149D-02
    3.360000    2.1020202272329D-01  4.145D-02
    3.365000    2.0966072840142D-01  4.141D-02
    3.370000    2.0911316858960D-01  4.137D-02
    3.375000    2.0855945479487D-01  4.133D-02
    3.380000    2.0799969881591D-01  4.128D-02
    3.385000    2.0743401268424D-01  4.123D-02
    3.390000    2.0686250860718D-01  4.118D-02
    3.395000    2.0628529891241D-01  4.112D-02
    3.400000    2.0570249599403D-01  4.107D-02
    3.405000    2.0511421226040D-01  4.101D-02
    3.410000    2.0452056008338D-01  4.094D-02
    3.415000    2.0392165174922D-01  4.088D-02
    3.420000    2.0331759941097D-01  4.081D-02
    3.425000    2.0270851504233D-01  4.074D-02
    3.430000    2.0209451039312D-01  4.067D-02
    3.435000    2.0147569694608D-01  4.059D-02
    3.440000    2.0085218587522D-01  4.052D-02
    3.445000    2.0022408800554D-01  4.044D-02
    3.450000    1.9959151377415D-01  4.036D-02
    3.455000    1.9895457319282D-01  4.027D-02
    3.460000    1.9831337581182D-01  4.019D-02
    3.465000    1.9766803068514D-01  4.010D-02
    3.470000    1.9701864633700D-01  4.001D-02
    3.475000    1.9636533072964D-01  3.992D-02
    3.480000    1.9570819123240D-01  3.983D-02
    3.485000    1.9504733459202D-01  3.973D-02
    3.490000    1.9438286690415D-01  3.964D-02
    3.495000    1.9371489358605D-01  3.954D-02
    3.500000    1.9304351935052D-01  3.944D-02
    3.505000    1.9236884818083D-01  3.934D-02
    3.510000    1.9169098330698D-01  3.924D-02
    3.515000    1.9101002718284D-01  3.913D-02
    3.520000    1.9032608146453D-01  3.903D-02
    3.525000    1.8963924698978D-01  3.892D-02
    3.530000    1.8894962375829D-01  3.881D-02
    3.535000    1.8825731091318D-01  3.870D-02
    3.540000    1.8756240672333D-01  3.859D-02
    3.545000    1.8686500856676D-01  3.847D-02
    3.550000    1.8616521291485D-01  3.836D-02
    3.555000    1.8546311531762D-01  3.824D-02
    3.560000    1.8475881038970D-01  3.813D-02
    3.565000    1.8405239179739D-01  3.801D-02
    3.570000    1.8334395224637D-01  3.789D-02
    3.575000    1.8263358347039D-01  3.777D-02
    3.580000    1.8192137622065D-01  3.765D-02
    3.585000    1.8120742025605D-01  3.753D-02
    3.590000    1.8049180433413D-01  3.740D-02
    3.595000    1.7977461620281D-01  3.728D-02
    3.600000    1.7905594259282D-01  3.715D-02
    3.605000    1.7833586921082D-01  3.703D-02
    3.610000    1.7761448073324D-01  3.690D-02
    3.615000    1.7689186080076D-01  3.677D-02
    3.620000    1.7616809201339D-01  3.664D-02
    3.625000    1.7544325592629D-01  3.651D-02
    3.630000    1.7471743304605D-01  3.638D-02
    3.635000    1.7399070282763D-01  3.625D-02
    3.640000    1.7326314367193D-01  3.612D-02
    3.645000    1.7253483292374D-01  3.599D-02
    3.650000    1.7180584687041D-01  3.586D-02
    3.655000    1.7107626074092D-01  3.572D-02
    3.660000    1.7034614870544D-01  3.559D-02
    3.665000    1.6961558387548D-01  3.545D-02
    3.670000    1.6888463830437D-01  3.532D-02
    3.675000    1.6815338298828D-01  3.518D-02
    3.680000    1.6742188786766D-01  3.505D-02
    3.685000    1.6669022182906D-01  3.491D-02
    3.690000    1.6595845270739D-01  3.477D-02
    3.695000    1.6522664728855D-01  3.463D-02
    3.700000    1.6449487131243D-01  3.450D-02
    3.705000    1.6376318947630D-01  3.436D-02
    3.710000    1.6303166543852D-01  3.422D-02
    3.715000    1.6230036182256D-01  3.408D-02
    3.720000    1.6156934022140D-01  3.394D-02
    3.725000    1.6083866120216D-01  3.380D-02
    3.730000    1.6010838431111D-01  3.366D-02
    3.735000    1.5937856807888D-01  3.352D-02
    3.740000    1.5864927002597D-01  3.338D-02
    3.745000    1.5792054666853D-01  3.324D-02
    3.750000    1.5719245352438D-01  3.310D-02
    3.755000    1.5646504511924D-01  3.296D-02
    3.760000    1.5573837499322D-01  3.282D-02
    3.765000    1.5501249570747D-01  3.267D-02
    3.770000    1.5428745885109D-01  3.253D-02
    3.775000    1.5356331504820D-01  3.239D-02
    3.780000    1.5284011396518D-01  3.225D-02
    3.785000    1.5211790431812D-01  3.211D-02
    3.790000    1.5139673388039D-01  3.196D-02
    3.795000    1.5067664949039D-01  3.182D-02
    3.800000    1.4995769705943D-01  3.168D-02
    3.805000    1.4923992157978D-01  3.154D-02
    3.810000    1.4852336713278D-01  3.140D-02
    3.815000    1.4780807689712D-01  3.125D-02
    3.820000    1.4709409315724D-01  3.111D-02
    3.825000    1.4638145731180D-01  3.097D-02
    3.830000    1.4567020988222D-01  3.083D-02
    3.835000    1.4496039052144D-01  3.069D-02
    3.840000    1.4425203802255D-01  3.055D-02
    3.845000    1.4354519032771D-01  3.040D-02
    3.850000    1.4283988453698D-01  3.026D-02
    3.855000    1.4213615691731D-01  3.012D-02
    3.860000    1.4143404291152D-01  2.998D-02
    3.865000    1.4073357714736D-01  2.984D-02
    3.870000    1.4003479344661D-01  2.970D-02
    3.875000    1.3933772483425D-01  2.956D-02
    3.880000    1.3864240354757D-01  2.942D-02
    3.885000    1.3794886104541D-01  2.928D-02
    3.890000    1.3725712801735D-01  2.914D-02
    3.895000    1.3656723439298D-01  2.900D-02
    3.900000    1.3587920935112D-01  2.886D-02
    3.905000    1.3519308132905D-01  2.872D-02
    3.910000    1.3450887803185D-01  2.858D-02
    3.915000    1.3382662644155D-01  2.844D-02
    3.920000    1.3314635282648D-01  2.830D-02
    3.925000    1.3246808275044D-01  2.816D-02
    3.930000    1.3179184108196D-01  2.802D-02
    3.935000    1.3111765200352D-01  2.789D-02
    3.940000    1.3044553902073D-01  2.775D-02
    3.945000    1.2977552497147D-01  2.761D-02
    3.950000    1.2910763203512D-01  2.747D-02
    3.955000    1.2844188174155D-01  2.734D-02
    3.960000    1.2777829498031D-01  2.720D-02
    3.965000    1.2711689200961D-01  2.707D-02
    3.970000    1.2645769246534D-01  2.693D-02
    3.975000    1.2580071537004D-01  2.680D-02
    3.980000    1.2514597914182D-01  2.666D-02
    3.985000    1.2449350160322D-01  2.653D-02
    3.990000    1.2384329999006D-01  2.639D-02
    3.995000    1.2319539096021D-01  2.626D-02
    4.000000    1.2254979060228D-01  2.612D-02
    4.005000    1.2190651444435D-01  2.599D-02
    4.010000    1.2126557746254D-01  2.586D-02
    4.015000    1.2062699408955D-01  2.573D-02
    4.020000    1.1999077822322D-01  2.559D-02
    4.025000    1.1935694323490D-01  2.546D-02
    4.030000    1.1872550197784D-01  2.533D-02
    4.035000    1.1809646679553D-01  2.520D-02
    4.040000    1.1746984952990D-01  2.507D-02
    4.045000    1.1684566152950D-01  2.494D-02
    4.050000    1.1622391365762D-01  2.481D-02
    4.055000    1.1560461630035D-01  2.468D-02
    4.060000    1.1498777937448D-01  2.455D-02
    4.065000    1.1437341233546D-01  2.443D-02
    4.070000    1.1376152418522D-01  2.430D-02
    4.075000    1.1315212347989D-01  2.417D-02
    4.080000    1.1254521833749D-01  2.405D-02
    4.085000    1.1194081644555D-01  2.392D-02
    4.090000    1.1133892506863D-01  2.379D-02
    4.095000    1.1073955105577D-01  2.367D-02
    4.100000    1.1014270084788D-01  2.354D-02
    4.105000    1.0954838048503D-01  2.342D-02
    4.110000    1.0895659561370D-01  2.330D-02
    4.115000    1.0836735149390D-01  2.317D-02
    4.120000    1.0778065300624D-01  2.305D-02
    4.125000    1.0719650465896D-01  2.293D-02
    4.130000    1.0661491059483D-01  2.280D-02
    4.135000    1.0603587459794D-01  2.268D-02
    4.140000    1.0545940010055D-01  2.256D-02
    4.145000    1.0488549018970D-01  2.244D-02
    4.150000    1.0431414761383D-01  2.232D-02
    4.155000    1.0374537478934D-01  2.220D-02
    4.160000    1.0317917380698D-01  2.208D-02
    4.165000    1.0261554643826D-01  2.196D-02
    4.170000    1.0205449414174D-01  2.185D-02
    4.175000    1.0149601806922D-01  2.173D-02
    4.180000    1.0094011907189D-01  2.161D-02
    4.185000    1.0038679770637D-01  2.150D-02
    4.190000    9.9836054240734D-02  2.138D-02
    4.195000    9.9287888660355D-02  2.126D-02
    4.200000    9.8742300673769D-02  2.115D-02
    4.205000    9.8199289718414D-02  2.103D-02
    4.210000    9.7658854966301D-02  2.092D-02
    4.215000    9.7120995329610D-02  2.081D-02
    4.220000    9.6585709466216D-02  2.069D-02
    4.225000    9.6052995785130D-02  2.058D-02
    4.230000    9.5522852451873D-02  2.047D-02
    4.235000    9.4995277393771D-02  2.036D-02
    4.240000    9.4470268305180D-02  2.025D-02
    4.245000    9.3947822652634D-02  2.014D-02
    4.250000    9.3427937679919D-02  2.003D-02
    4.255000    9.2910610413079D-02  1.992D-02
    4.260000    9.2395837665350D-02  1.981D-02
    4.265000    9.1883616042011D-02  1.970D-02
    4.270000    9.1373941945185D-02  1.959D-02
    4.275000    9.0866811578545D-02  1.949D-02
    4.280000    9.0362220951973D-02  1.938D-02
    4.285000    8.9860165886130D-02  1.927D-02
    4.290000    8.9360642016973D-02  1.917D-02
    4.295000    8.8863644800193D-02  1.906D-02
    4.300000    8.8369169515590D-02  1.896D-02
    4.305000    8.7877211271379D-02  1.885D-02
    4.310000    8.7387765008432D-02  1.875D-02
    4.315000    8.6900825504453D-02  1.864D-02
    4.320000    8.6416387378085D-02  1.854D-02
    4.325000    8.5934445092956D-02  1.844D-02
    4.330000    8.5454992961660D-02  1.834D-02
    4.335000    8.4978025149673D-02  1.824D-02
    4.340000    8.4503535679209D-02  1.814D-02
    4.345000    8.4031518433010D-02  1.804D-02
    4.350000    8.3561967158079D-02  1.794D-02
    4.355000    8.3094875469348D-02  1.784D-02
    4.360000    8.2630236853290D-02  1.774D-02
    4.365000    8.2168044671465D-02  1.764D-02
    4.370000    8.1708292164017D-02  1.754D-02
    4.375000    8.1250972453100D-02  1.744D-02
    4.380000    8.0796078546259D-02  1.735D-02
    4.385000    8.0343603339746D-02  1.725D-02
    4.390000    7.9893539621782D-02  1.716D-02
    4.395000    7.9445880075762D-02  1.706D-02
    4.400000    7.9000617283408D-02  1.697D-02
    4.405000    7.8557743727866D-02  1.687D-02
    4.410000    7.8117251796748D-02  1.678D-02
    4.415000    7.7679133785122D-02  1.668D-02
    4.420000    7.7243381898449D-02  1.659D-02
    4.425000    7.6809988255473D-02  1.650D-02
    4.430000    7.6378944891050D-02  1.641D-02
    4.435000    7.5950243758934D-02  1.632D-02
    4.440000    7.5523876734516D-02  1.623D-02
    4.445000    7.5099835617501D-02  1.613D-02
    4.450000    7.4678112134550D-02  1.604D-02
    4.455000    7.4258697941867D-02  1.596D-02
    4.460000    7.3841584627742D-02  1.587D-02
    4.465000    7.3426763715040D-02  1.578D-02
    4.470000    7.3014226663657D-02  1.569D-02
    4.475000    7.2603964872917D-02  1.560D-02
    4.480000    7.2195969683932D-02  1.552D-02
    4.485000    7.1790232381917D-02  1.543D-02
    4.490000    7.1386744198457D-02  1.534D-02
    4.495000    7.0985496313738D-02  1.526D-02
    4.500000    7.0586479858730D-02  1.517D-02
    4.505000    7.0189685917327D-02  1.509D-02
    4.510000    6.9795105528453D-02  1.500D-02
    4.515000    6.9402729688120D-02  1.492D-02
    4.520000    6.9012549351450D-02  1.484D-02
    4.525000    6.8624555434655D-02  1.475D-02