
variables = "r", "tA(r)", "Uncertainty"
zone T = "State 2 qA(r)  66N16p6q3Rf4_40C3ReD"

    1.500000   -1.5635826070035D-04  1.250D-05
    1.562500   -1.4980720401096D-04  1.198D-05
    1.625000   -1.4302887333823D-04  1.144D-05
    1.687500   -1.3605902726829D-04  1.088D-05
    1.750000   -1.2893542189172D-04  1.031D-05
    1.812500   -1.2169717330675D-04  9.730D-06
    1.875000   -1.1438410389855D-04  9.145D-06
    1.937500   -1.0703609156900D-04  8.558D-06
    2.000000   -9.9692440412948D-05  7.970D-06
    2.062500   -9.2391289827202D-05  7.387D-06
    2.125000   -8.5169076821446D-05  6.809D-06
    2.187500   -7.8060063540252D-05  6.241D-06
    2.250000   -7.1095938892855D-05  5.684D-06
    2.312500   -6.4305499918164D-05  5.141D-06
    2.375000   -5.7714415276591D-05  4.614D-06
    2.437500   -5.1345070225226D-05  4.105D-06
    2.500000   -4.5216489735490D-05  3.615D-06
    2.562500   -3.9344334151854D-05  3.146D-06
    2.625000   -3.3740960026547D-05  2.698D-06
    2.687500   -2.8415537520198D-05  2.272D-06
    2.750000   -2.3374215020405D-05  1.869D-06
    2.812500   -1.8620321360153D-05  1.489D-06
    2.875000   -1.4154596156560D-05  1.132D-06
    2.937500   -9.9754392657415D-06  7.975D-07
    3.000000   -6.0791710840968D-06  4.860D-07
    3.062500   -2.4602963428192D-06  1.967D-07
    3.125000    8.8823493123941D-07  7.101D-08
    3.187500    3.9747745429206D-06  3.178D-07
    3.250000    6.8087355339559D-06  5.444D-07
    3.312500    9.4003670402389D-06  7.516D-07
    3.375000    1.1760546840497D-05  9.403D-07
    3.437500    1.3900593001877D-05  1.111D-06
    3.500000    1.5832095306747D-05  1.266D-06
    3.562500    1.7566766540254D-05  1.404D-06
    3.625000    1.9116313227831D-05  1.528D-06
    3.687500    2.0492325029290D-05  1.638D-06
    3.750000    2.1706181711843D-05  1.735D-06
    3.812500    2.2768976426919D-05  1.820D-06
    3.875000    2.3691453892704D-05  1.894D-06
    3.937500    2.4483962023755D-05  1.958D-06
    4.000000    2.5156415538855D-05  2.011D-06
    4.062500    2.5718270107794D-05  2.056D-06
    4.125000    2.6178505657173D-05  2.093D-06
    4.187500    2.6545617536133D-05  2.122D-06
    4.250000    2.6827614338068D-05  2.145D-06
    4.312500    2.7032021277863D-05  2.161D-06
    4.375000    2.7165888131245D-05  2.172D-06
    4.437500    2.7235800849805D-05  2.178D-06
    4.500000    2.7247896069237D-05  2.178D-06
    4.562500    2.7207877827344D-05  2.175D-06
    4.625000    2.7121035901007D-05  2.168D-06
    4.687500    2.6992265256700D-05  2.158D-06
    4.750000    2.6826086186894D-05  2.145D-06
    4.812500    2.6626664774560D-05  2.129D-06
    4.875000    2.6397833390338D-05  2.111D-06
    4.937500    2.6143110981753D-05  2.090D-06
    5.000000    2.5865722961945D-05  2.068D-06
    5.062500    2.5568620546847D-05  2.044D-06
    5.125000    2.5254499425514D-05  2.019D-06
    5.187500    2.4925817678627D-05  1.993D-06
    5.250000    2.4584812885847D-05  1.966D-06
    5.312500    2.4233518384085D-05  1.937D-06
    5.375000    2.3873778656469D-05  1.909D-06
    5.437500    2.3507263846229D-05  1.879D-06
    5.500000    2.3135483401420D-05  1.850D-06
    5.562500    2.2759798865637D-05  1.820D-06
    5.625000    2.2381435837091D-05  1.789D-06
    5.687500    2.2001495123900D-05  1.759D-06
    5.750000    2.1620963127444D-05  1.729D-06
    5.812500    2.1240721488434D-05  1.698D-06
    5.875000    2.0861556032134D-05  1.668D-06
    5.937500    2.0484165050138D-05  1.638D-06
    6.000000    2.0109166956418D-05  1.608D-06
    6.062500    1.9737107355094D-05  1.578D-06
    6.125000    1.9368465556768D-05  1.549D-06
    6.187500    1.9003660579265D-05  1.519D-06
    6.250000    1.8643056667405D-05  1.491D-06
    6.312500    1.8286968365062D-05  1.462D-06
    6.375000    1.7935665171221D-05  1.434D-06
    6.437500    1.7589375810193D-05  1.406D-06
    6.500000    1.7248292144476D-05  1.379D-06
    6.562500    1.6912572757154D-05  1.352D-06
    6.625000    1.6582346229066D-05  1.326D-06
    6.687500    1.6257714134408D-05  1.300D-06
    6.750000    1.5938753776864D-05  1.274D-06
    6.812500    1.5625520686873D-05  1.249D-06
    6.875000    1.5318050899209D-05  1.225D-06
    6.937500    1.5016363028682D-05  1.201D-06
    7.000000    1.4720460160472D-05  1.177D-06
    7.062500    1.4430331570391D-05  1.154D-06
    7.125000    1.4145954289201D-05  1.131D-06
    7.187500    1.3867294524050D-05  1.109D-06
    7.250000    1.3594308949079D-05  1.087D-06
    7.312500    1.3326945876274D-05  1.065D-06
    7.375000    1.3065146316813D-05  1.045D-06
    7.437500    1.2808844942289D-05  1.024D-06
    7.500000    1.2557970954451D-05  1.004D-06
    7.562500    1.2312448871413D-05  9.844D-07
    7.625000    1.2072199237604D-05  9.652D-07
    7.687500    1.1837139264152D-05  9.464D-07
    7.750000    1.1607183405824D-05  9.280D-07
    7.812500    1.1382243880145D-05  9.100D-07
    7.875000    1.1162231133838D-05  8.924D-07
    7.937500    1.0947054261286D-05  8.752D-07
    8.000000    1.0736621379342D-05  8.584D-07
    8.062500    1.0530839962421D-05  8.419D-07
    8.125000    1.0329617141470D-05  8.259D-07
    8.187500    1.0132859970135D-05  8.101D-07
    8.250000    9.9404756611089D-06  7.947D-07
    8.312500    9.7523717954392D-06  7.797D-07
    8.375000    9.5684565072792D-06  7.650D-07
    8.437500    9.3886386463996D-06  7.506D-07
    8.500000    9.2128279205400D-06  7.366D-07
    8.562500    9.0409350195131D-06  7.228D-07
    8.625000    8.8728717228050D-06  7.094D-07
    8.687500    8.7085509922556D-06  6.963D-07
    8.750000    8.5478870512703D-06  6.834D-07
    8.812500    8.3907954518785D-06  6.708D-07
    8.875000    8.2371931308428D-06  6.586D-07
    8.937500    8.0869984559109D-06  6.466D-07
    9.000000    7.9401312632075D-06  6.348D-07
    9.062500    7.7965128866714D-06  6.233D-07
    9.125000    7.6560661803627D-06  6.121D-07
    9.187500    7.5187155343898D-06  6.011D-07
    9.250000    7.3843868851365D-06  5.904D-07
    9.312500    7.2530077204099D-06  5.799D-07
    9.375000    7.1245070800695D-06  5.696D-07
    9.437500    6.9988155526484D-06  5.596D-07
    9.500000    6.8758652684306D-06  5.497D-07
    9.562500    6.7555898894010D-06  5.401D-07
    9.625000    6.6379245964525D-06  5.307D-07
    9.687500    6.5228060741901D-06  5.215D-07
    9.750000    6.4101724936477D-06  5.125D-07
    9.812500    6.2999634931959D-06  5.037D-07
    9.875000    6.1921201578972D-06  4.951D-07
    9.937500    6.0865849975384D-06  4.866D-07
   10.000000    5.9833019235457D-06  4.784D-07
   10.062500    5.8822162249713D-06  4.703D-07
   10.125000    5.7832745437168D-06  4.624D-07
   10.187500    5.6864248491471D-06  4.546D-07
   10.250000    5.5916164122274D-06  4.471D-07
   10.312500    5.4987997793062D-06  4.396D-07
   10.375000    5.4079267456524D-06  4.324D-07
   10.437500    5.3189503288429D-06  4.253D-07
   10.500000    5.2318247420865D-06  4.183D-07
   10.562500    5.1465053675626D-06  4.115D-07
   10.625000    5.0629487298394D-06  4.048D-07
   10.687500    4.9811124694349D-06  3.982D-07
   10.750000    4.9009553165707D-06  3.918D-07
   10.812500    4.8224370651668D-06  3.856D-07
   10.875000    4.7455185471166D-06  3.794D-07
   10.937500    4.6701616068774D-06  3.734D-07
   11.000000    4.5963290764075D-06  3.675D-07
   11.062500    4.5239847504748D-06  3.617D-07
   11.125000    4.4530933623585D-06  3.560D-07
   11.187500    4.3836205599643D-06  3.505D-07
   11.250000    4.3155328823663D-06  3.450D-07
   11.312500    4.2487977367891D-06  3.397D-07
   11.375000    4.1833833760391D-06  3.345D-07
   11.437500    4.1192588763944D-06  3.293D-07
   11.500000    4.0563941159555D-06  3.243D-07
   11.562500    3.9947597534641D-06  3.194D-07
   11.625000    3.9343272075888D-06  3.146D-07
   11.687500    3.8750686366809D-06  3.098D-07
   11.750000    3.8169569189966D-06  3.052D-07
   11.812500    3.7599656333867D-06  3.006D-07
   11.875000    3.7040690404486D-06  2.961D-07
   11.937500    3.6492420641375D-06  2.918D-07
   12.000000    3.5954602738323D-06  2.875D-07
   12.062500    3.5426998668508D-06  2.832D-07
   12.125000    3.4909376514081D-06  2.791D-07
   12.187500    3.4401510300120D-06  2.750D-07
   12.250000    3.3903179832884D-06  2.711D-07
   12.312500    3.3414170542296D-06  2.671D-07
   12.375000    3.2934273328582D-06  2.633D-07
   12.437500    3.2463284412979D-06  2.595D-07
   12.500000    3.2001005192449D-06  2.558D-07
   12.562500    3.1547242098300D-06  2.522D-07
   12.625000    3.1101806458646D-06  2.487D-07
   12.687500    3.0664514364611D-06  2.452D-07
   12.750000    3.0235186540205D-06  2.417D-07
   12.812500    2.9813648215778D-06  2.384D-07
   12.875000    2.9399729004976D-06  2.351D-07
   12.937500    2.8993262785109D-06  2.318D-07
   13.000000    2.8594087580853D-06  2.286D-07
   13.062500    2.8202045451201D-06  2.255D-07
   13.125000    2.7816982379583D-06  2.224D-07
   13.187500    2.7438748167071D-06  2.194D-07
   13.250000    2.7067196328593D-06  2.164D-07
   13.312500    2.6702183992075D-06  2.135D-07
   13.375000    2.6343571800435D-06  2.106D-07
   13.437500    2.5991223816354D-06  2.078D-07
   13.500000    2.5645007429744D-06  2.050D-07
   13.562500    2.5304793267844D-06  2.023D-07
   13.625000    2.4970455107875D-06  1.996D-07
   13.687500    2.4641869792172D-06  1.970D-07
   13.750000    2.4318917145742D-06  1.944D-07
   13.812500    2.4001479896161D-06  1.919D-07
   13.875000    2.3689443595757D-06  1.894D-07
   13.937500    2.3382696546011D-06  1.869D-07
   14.000000    2.3081129724110D-06  1.845D-07
   14.062500    2.2784636711600D-06  1.822D-07
   14.125000    2.2493113625061D-06  1.798D-07
   14.187500    2.2206459048768D-06  1.775D-07
   14.250000    2.1924573969263D-06  1.753D-07
   14.312500    2.1647361711793D-06  1.731D-07
   14.375000    2.1374727878554D-06  1.709D-07
   14.437500    2.1106580288692D-06  1.687D-07
   14.500000    2.0842828920010D-06  1.666D-07
   14.562500    2.0583385852325D-06  1.646D-07
   14.625000    2.0328165212441D-06  1.625D-07
   14.687500    2.0077083120666D-06  1.605D-07
   14.750000    1.9830057638863D-06  1.585D-07
   14.812500    1.9587008719947D-06  1.566D-07
   14.875000    1.9347858158831D-06  1.547D-07
   14.937500    1.9112529544736D-06  1.528D-07
   15.000000    1.8880948214855D-06  1.510D-07
   15.062500    1.8653041209324D-06  1.491D-07
   15.125000    1.8428737227442D-06  1.473D-07
   15.187500    1.8207966585137D-06  1.456D-07
   15.250000    1.7990661173612D-06  1.438D-07
   15.312500    1.7776754419152D-06  1.421D-07
   15.375000    1.7566181244051D-06  1.404D-07
   15.437500    1.7358878028628D-06  1.388D-07
   15.500000    1.7154782574301D-06  1.372D-07
   15.562500    1.6953834067688D-06  1.355D-07
   15.625000    1.6755973045700D-06  1.340D-07
   15.687500    1.6561141361600D-06  1.324D-07
   15.750000    1.6369282152007D-06  1.309D-07
   15.812500    1.6180339804798D-06  1.294D-07
   15.875000    1.5994259927902D-06  1.279D-07
   15.937500    1.5810989318950D-06  1.264D-07
   16.000000    1.5630475935754D-06  1.250D-07
   16.062500    1.5452668867597D-06  1.235D-07
   16.125000    1.5277518307303D-06  1.221D-07
   16.187500    1.5104975524073D-06  1.208D-07
   16.250000    1.4934992837054D-06  1.194D-07
   16.312500    1.4767523589631D-06  1.181D-07
   16.375000    1.4602522124411D-06  1.167D-07
   16.437500    1.4439943758884D-06  1.154D-07
   16.500000    1.4279744761742D-06  1.142D-07
   16.562500    1.4121882329830D-06  1.129D-07
   16.625000    1.3966314565723D-06  1.117D-07
   16.687500    1.3813000455899D-06  1.104D-07
   16.750000    1.3661899849493D-06  1.092D-07
   16.812500    1.3512973437625D-06  1.080D-07
   16.875000    1.3366182733271D-06  1.069D-07
   16.937500    1.3221490051671D-06  1.057D-07
   17.000000    1.3078858491256D-06  1.046D-07
   17.062500    1.2938251915079D-06  1.034D-07
   17.125000    1.2799634932737D-06  1.023D-07
   17.187500    1.2662972882761D-06  1.012D-07
   17.250000    1.2528231815481D-06  1.002D-07
   17.312500    1.2395378476324D-06  9.910D-08
   17.375000    1.2264380289565D-06  9.805D-08
   17.437500    1.2135205342485D-06  9.702D-08
   17.500000    1.2007822369955D-06  9.600D-08
   17.562500    1.1882200739406D-06  9.500D-08
   17.625000    1.1758310436203D-06  9.401D-08
   17.687500    1.1636122049381D-06  9.303D-08
   17.750000    1.1515606757759D-06  9.207D-08
   17.812500    1.1396736316407D-06  9.112D-08
   17.875000    1.1279483043458D-06  9.018D-08
   17.937500    1.1163819807261D-06  8.926D-08
   18.000000    1.1049720013858D-06  8.834D-08
   18.062500    1.0937157594779D-06  8.744D-08
   18.125000    1.0826106995152D-06  8.656D-08
   18.187500    1.0716543162106D-06  8.568D-08
   18.250000    1.0608441533474D-06  8.482D-08
   18.312500    1.0501778026777D-06  8.396D-08
   18.375000    1.0396529028481D-06  8.312D-08
   18.437500    1.0292671383533D-06  8.229D-08
   18.500000    1.0190182385148D-06  8.147D-08
   18.562500    1.0089039764860D-06  8.066D-08
   18.625000    9.9892216828101D-07  7.986D-08
   18.687500    9.8907067182851D-07  7.908D-08
   18.750000    9.7934738604855D-07  7.830D-08
   18.812500    9.6975024995214D-07  7.753D-08
   18.875000    9.6027724176316D-07  7.677D-08
   18.937500    9.5092637806172D-07  7.603D-08
   19.000000    9.4169571294858D-07  7.529D-08
   19.062500    9.3258333722994D-07  7.456D-08
   19.125000    9.2358737762210D-07  7.384D-08
   19.187500    9.1470599597552D-07  7.313D-08
   19.250000    9.0593738851763D-07  7.243D-08
   19.312500    8.9727978511400D-07  7.174D-08
   19.375000    8.8873144854733D-07  7.105D-08
   19.437500    8.8029067381379D-07  7.038D-08
   19.500000    8.7195578743622D-07  6.971D-08
   19.562500    8.6372514679393D-07  6.906D-08
   19.625000    8.5559713946826D-07  6.841D-08
   19.687500    8.4757018260397D-07  6.776D-08
   19.750000    8.3964272228571D-07  6.713D-08
   19.812500    8.3181323292926D-07  6.650D-08
   19.875000    8.2408021668717D-07  6.589D-08
   19.937500    8.1644220286852D-07  6.528D-08
   20.000000    8.0889774737218D-07  6.467D-08
   20.062500    8.0144543213350D-07  6.408D-08
   20.125000    7.9408386458388D-07  6.349D-08
   20.187500    7.8681167712303D-07  6.291D-08
   20.250000    7.7962752660346D-07  6.233D-08
   20.312500    7.7253009382695D-07  6.176D-08
   20.375000    7.6551808305281D-07  6.120D-08
   20.437500    7.5859022151733D-07  6.065D-08
   20.500000    7.5174525896446D-07  6.010D-08
   20.562500    7.4498196718721D-07  5.956D-08
   20.625000    7.3829913957961D-07  5.903D-08
   20.687500    7.3169559069893D-07  5.850D-08
   20.750000    7.2517015583786D-07  5.798D-08
   20.812500    7.1872169060649D-07  5.746D-08
   20.875000    7.1234907052370D-07  5.695D-08
   20.937500    7.0605119061798D-07  5.645D-08
   21.000000    6.9982696503706D-07  5.595D-08
   21.062500    6.9367532666649D-07  5.546D-08
   21.125000    6.8759522675680D-07  5.497D-08
   21.187500    6.8158563455893D-07  5.449D-08
   21.250000    6.7564553696791D-07  5.402D-08
   21.312500    6.6977393817447D-07  5.355D-08
   21.375000    6.6396985932445D-07  5.308D-08
   21.437500    6.5823233818561D-07  5.263D-08
   21.500000    6.5256042882213D-07  5.217D-08
   21.562500    6.4695320127597D-07  5.172D-08
   21.625000    6.4140974125556D-07  5.128D-08
   21.687500    6.3592914983107D-07  5.084D-08
   21.750000    6.3051054313658D-07  5.041D-08
   21.812500    6.2515305207870D-07  4.998D-08
   21.875000    6.1985582205149D-07  4.956D-08
   21.937500    6.1461801265763D-07  4.914D-08
   22.000000    6.0943879743578D-07  4.872D-08
   22.062500    6.0431736359359D-07  4.832D-08
   22.125000    5.9925291174676D-07  4.791D-08
   22.187500    5.9424465566349D-07  4.751D-08
   22.250000    5.8929182201466D-07  4.711D-08
   22.312500    5.8439365012913D-07  4.672D-08
   22.375000    5.7954939175452D-07  4.634D-08
   22.437500    5.7475831082290D-07  4.595D-08
   22.500000    5.7001968322165D-07  4.557D-08
   22.562500    5.6533279656902D-07  4.520D-08
   22.625000    5.6069694999462D-07  4.483D-08
   22.687500    5.5611145392441D-07  4.446D-08
   22.750000    5.5157562987032D-07  4.410D-08
   22.812500    5.4708881022428D-07  4.374D-08
   22.875000    5.4265033805656D-07  4.339D-08
   22.937500    5.3825956691832D-07  4.303D-08
   23.000000    5.3391586064841D-07  4.269D-08
   23.062500    5.2961859318397D-07  4.234D-08
   23.125000    5.2536714837522D-07  4.200D-08
   23.187500    5.2116091980395D-07  4.167D-08
   23.250000    5.1699931060579D-07  4.133D-08
   23.312500    5.1288173329614D-07  4.101D-08
   23.375000    5.0880760959979D-07  4.068D-08
   23.437500    5.0477637028389D-07  4.036D-08
   23.500000    5.0078745499448D-07  4.004D-08
   23.562500    4.9684031209625D-07  3.972D-08
   23.625000    4.9293439851569D-07  3.941D-08
   23.687500    4.8906917958735D-07  3.910D-08
   23.750000    4.8524412890324D-07  3.880D-08
   23.812500    4.8145872816532D-07  3.849D-08
   23.875000    4.7771246704092D-07  3.819D-08
   23.937500    4.7400484302113D-07  3.790D-08
   24.000000    4.7033536128202D-07  3.760D-08
   24.062500    4.6670353454864D-07  3.731D-08
   24.125000    4.6310888296169D-07  3.703D-08
   24.187500    4.5955093394702D-07  3.674D-08
   24.250000    4.5602922208760D-07  3.646D-08
   24.312500    4.5254328899799D-07  3.618D-08
   24.375000    4.4909268320146D-07  3.591D-08
   24.437500    4.4567696000946D-07  3.563D-08
   24.500000    4.4229568140346D-07  3.536D-08
   24.562500    4.3894841591907D-07  3.509D-08
   24.625000    4.3563473853265D-07  3.483D-08
   24.687500    4.3235423054990D-07  3.457D-08
   24.750000    4.2910647949670D-07  3.431D-08
   24.812500    4.2589107901225D-07  3.405D-08
   24.875000    4.2270762874402D-07  3.380D-08
   24.937500    4.1955573424496D-07  3.354D-08
   25.000000    4.1643500687261D-07  3.329D-08
   25.062500    4.1334506369018D-07  3.305D-08
   25.125000    4.1028552736954D-07  3.280D-08
   25.187500    4.0725602609607D-07  3.256D-08
   25.250000    4.0425619347536D-07  3.232D-08
   25.312500    4.0128566844170D-07  3.208D-08
   25.375000    3.9834409516829D-07  3.185D-08
   25.437500    3.9543112297921D-07  3.161D-08
   25.500000    3.9254640626306D-07  3.138D-08
   25.562500    3.8968960438817D-07  3.116D-08
   25.625000    3.8686038161952D-07  3.093D-08
   25.687500    3.8405840703715D-07  3.071D-08
   25.750000    3.8128335445625D-07  3.048D-08
   25.812500    3.7853490234850D-07  3.026D-08
   25.875000    3.7581273376518D-07  3.005D-08
   25.937500    3.7311653626153D-07  2.983D-08
   26.000000    3.7044600182257D-07  2.962D-08
   26.062500    3.6780082679036D-07  2.941D-08
   26.125000    3.6518071179253D-07  2.920D-08
   26.187500    3.6258536167224D-07  2.899D-08
   26.250000    3.6001448541932D-07  2.878D-08
   26.312500    3.5746779610280D-07  2.858D-08
   26.375000    3.5494501080462D-07  2.838D-08
   26.437500    3.5244585055456D-07  2.818D-08
   26.500000    3.4997004026640D-07  2.798D-08
   26.562500    3.4751730867526D-07  2.778D-08
   26.625000    3.4508738827599D-07  2.759D-08
   26.687500    3.4268001526285D-07  2.740D-08
   26.750000    3.4029492947016D-07  2.721D-08
   26.812500    3.3793187431403D-07  2.702D-08
   26.875000    3.3559059673526D-07  2.683D-08
   26.937500    3.3327084714316D-07  2.665D-08
   27.000000    3.3097237936042D-07  2.646D-08
   27.062500    3.2869495056903D-07  2.628D-08
   27.125000    3.2643832125706D-07  2.610D-08
   27.187500    3.2420225516652D-07  2.592D-08
   27.250000    3.2198651924206D-07  2.574D-08
   27.312500    3.1979088358066D-07  2.557D-08
   27.375000    3.1761512138211D-07  2.539D-08
   27.437500    3.1545900890056D-07  2.522D-08
   27.500000    3.1332232539669D-07  2.505D-08
   27.562500    3.1120485309094D-07  2.488D-08
   27.625000    3.0910637711745D-07  2.471D-08
   27.687500    3.0702668547883D-07  2.455D-08
   27.750000    3.0496556900180D-07  2.438D-08
   27.812500    3.0292282129345D-07  2.422D-08
   27.875000    3.0089823869849D-07  2.406D-08
   27.937500    2.9889162025703D-07  2.390D-08
   28.000000    2.9690276766323D-07  2.374D-08
   28.062500    2.9493148522466D-07  2.358D-08
   28.125000    2.9297757982232D-07  2.342D-08
   28.187500    2.9104086087136D-07  2.327D-08
   28.250000    2.8912114028257D-07  2.312D-08
   28.312500    2.8721823242435D-07  2.296D-08
   28.375000    2.8533195408558D-07  2.281D-08
   28.437500    2.8346212443887D-07  2.266D-08
   28.500000    2.8160856500472D-07  2.251D-08
   28.562500    2.7977109961600D-07  2.237D-08
   28.625000    2.7794955438331D-07  2.222D-08
   28.687500    2.7614375766069D-07  2.208D-08
   28.750000    2.7435354001214D-07  2.193D-08
   28.812500    2.7257873417852D-07  2.179D-08
   28.875000    2.7081917504516D-07  2.165D-08
   28.937500    2.6907469960990D-07  2.151D-08
   29.000000    2.6734514695171D-07  2.137D-08
   29.062500    2.6563035819993D-07  2.124D-08
   29.125000    2.6393017650387D-07  2.110D-08
   29.187500    2.6224444700304D-07  2.097D-08
   29.250000    2.6057301679783D-07  2.083D-08
   29.312500    2.5891573492069D-07  2.070D-08
   29.375000    2.5727245230779D-07  2.057D-08
   29.437500    2.5564302177117D-07  2.044D-08
   29.500000    2.5402729797131D-07  2.031D-08
   29.562500    2.5242513739019D-07  2.018D-08
   29.625000    2.5083639830484D-07  2.005D-08
   29.687500    2.4926094076119D-07  1.993D-08
   29.750000    2.4769862654850D-07  1.980D-08
   29.812500    2.4614931917415D-07  1.968D-08
   29.875000    2.4461288383878D-07  1.956D-08
   29.937500    2.4308918741200D-07  1.944D-08
   30.000000    2.4157809840831D-07  1.931D-08
   30.062500    2.4007948696356D-07  1.919D-08
   30.125000    2.3859322481174D-07  1.908D-08
   30.187500    2.3711918526209D-07  1.896D-08
   30.250000    2.3565724317668D-07  1.884D-08
   30.312500    2.3420727494831D-07  1.873D-08
   30.375000    2.3276915847875D-07  1.861D-08
   30.437500    2.3134277315737D-07  1.850D-08
   30.500000    2.2992799984006D-07  1.838D-08
   30.562500    2.2852472082858D-07  1.827D-08
   30.625000    2.2713281985011D-07  1.816D-08
   30.687500    2.2575218203728D-07  1.805D-08
   30.750000    2.2438269390839D-07  1.794D-08
   30.812500    2.2302424334798D-07  1.783D-08
   30.875000    2.2167671958782D-07  1.772D-08
   30.937500    2.2034001318798D-07  1.762D-08
   31.000000    2.1901401601846D-07  1.751D-08
   31.062500    2.1769862124087D-07  1.741D-08
   31.125000    2.1639372329058D-07  1.730D-08
   31.187500    2.1509921785906D-07  1.720D-08
   31.250000    2.1381500187651D-07  1.709D-08
   31.312500    2.1254097349479D-07  1.699D-08
   31.375000    2.1127703207059D-07  1.689D-08
   31.437500    2.1002307814888D-07  1.679D-08
   31.500000    2.0877901344662D-07  1.669D-08
   31.562500    2.0754474083670D-07  1.659D-08
   31.625000    2.0632016433215D-07  1.650D-08
   31.687500    2.0510518907061D-07  1.640D-08
   31.750000    2.0389972129902D-07  1.630D-08
   31.812500    2.0270366835853D-07  1.621D-08
   31.875000    2.0151693866967D-07  1.611D-08
   31.937500    2.0033944171776D-07  1.602D-08
   32.000000    1.9917108803853D-07  1.592D-08
   32.062500    1.9801178920393D-07  1.583D-08
   32.125000    1.9686145780822D-07  1.574D-08
   32.187500    1.9572000745417D-07  1.565D-08
   32.250000    1.9458735273967D-07  1.556D-08
   32.312500    1.9346340924428D-07  1.547D-08
   32.375000    1.9234809351616D-07  1.538D-08
   32.437500    1.9124132305923D-07  1.529D-08
   32.500000    1.9014301632033D-07  1.520D-08
   32.562500    1.8905309267682D-07  1.511D-08
   32.625000    1.8797147242412D-07  1.503D-08
   32.687500    1.8689807676369D-07  1.494D-08
   32.750000    1.8583282779093D-07  1.486D-08
   32.812500    1.8477564848354D-07  1.477D-08
   32.875000    1.8372646268976D-07  1.469D-08
   32.937500    1.8268519511706D-07  1.461D-08
   33.000000    1.8165177132081D-07  1.452D-08
   33.062500    1.8062611769317D-07  1.444D-08
   33.125000    1.7960816145224D-07  1.436D-08
   33.187500    1.7859783063116D-07  1.428D-08
   33.250000    1.7759505406766D-07  1.420D-08
   33.312500    1.7659976139347D-07  1.412D-08
   33.375000    1.7561188302410D-07  1.404D-08
   33.437500    1.7463135014867D-07  1.396D-08
   33.500000    1.7365809471992D-07  1.388D-08
   33.562500    1.7269204944436D-07  1.381D-08
   33.625000    1.7173314777257D-07  1.373D-08
   33.687500    1.7078132388961D-07  1.365D-08
   33.750000    1.6983651270563D-07  1.358D-08
   33.812500    1.6889864984661D-07  1.350D-08
   33.875000    1.6796767164512D-07  1.343D-08
   33.937500    1.6704351513142D-07  1.336D-08
   34.000000    1.6612611802445D-07  1.328D-08
   34.062500    1.6521541872320D-07  1.321D-08
   34.125000    1.6431135629797D-07  1.314D-08
   34.187500    1.6341387048197D-07  1.307D-08
   34.250000    1.6252290166282D-07  1.299D-08
   34.312500    1.6163839087441D-07  1.292D-08
   34.375000    1.6076027978863D-07  1.285D-08
   34.437500    1.5988851070749D-07  1.278D-08
   34.500000    1.5902302655506D-07  1.271D-08
   34.562500    1.5816377086979D-07  1.265D-08
   34.625000    1.5731068779675D-07  1.258D-08
   34.687500    1.5646372208009D-07  1.251D-08
   34.750000    1.5562281905555D-07  1.244D-08
   34.812500    1.5478792464312D-07  1.238D-08
   34.875000    1.5395898533975D-07  1.231D-08
   34.937500    1.5313594821223D-07  1.224D-08
   35.000000    1.5231876089007D-07  1.218D-08
   35.062500    1.5150737155864D-07  1.211D-08
   35.125000    1.5070172895224D-07  1.205D-08
   35.187500    1.4990178234736D-07  1.198D-08
   35.250000    1.4910748155598D-07  1.192D-08
   35.312500    1.4831877691910D-07  1.186D-08
   35.375000    1.4753561930010D-07  1.180D-08
   35.437500    1.4675796007852D-07  1.173D-08
   35.500000    1.4598575114361D-07  1.167D-08
   35.562500    1.4521894488820D-07  1.161D-08
   35.625000    1.4445749420256D-07  1.155D-08
   35.687500    1.4370135246834D-07  1.149D-08
   35.750000    1.4295047355261D-07  1.143D-08
   35.812500    1.4220481180198D-07  1.137D-08
   35.875000    1.4146432203687D-07  1.131D-08
   35.937500    1.4072895954567D-07  1.125D-08
   36.000000    1.3999868007920D-07  1.119D-08
   36.062500    1.3927343984512D-07  1.113D-08
   36.125000    1.3855319550243D-07  1.108D-08
   36.187500    1.3783790415610D-07  1.102D-08
   36.250000    1.3712752335168D-07  1.096D-08
   36.312500    1.3642201107007D-07  1.091D-08
   36.375000    1.3572132572234D-07  1.085D-08
   36.437500    1.3502542614459D-07  1.080D-08
   36.500000    1.3433427159288D-07  1.074D-08
   36.562500    1.3364782173832D-07  1.069D-08
   36.625000    1.3296603666203D-07  1.063D-08
   36.687500    1.3228887685044D-07  1.058D-08
   36.750000    1.3161630319035D-07  1.052D-08
   36.812500    1.3094827696438D-07  1.047D-08
   36.875000    1.3028475984614D-07  1.042D-08
   36.937500    1.2962571389578D-07  1.036D-08
   37.000000    1.2897110155536D-07  1.031D-08
   37.062500    1.2832088564443D-07  1.026D-08
   37.125000    1.2767502935561D-07  1.021D-08
   37.187500    1.2703349625021D-07  1.016D-08
   37.250000    1.2639625025397D-07  1.011D-08
   37.312500    1.2576325565279D-07  1.005D-08
   37.375000    1.2513447708857D-07  1.000D-08
   37.437500    1.2450987955511D-07  9.955D-09
   37.500000    1.2388942839392D-07  9.905D-09
   37.562500    1.2327308929036D-07  9.856D-09
   37.625000    1.2266082826955D-07  9.807D-09
   37.687500    1.2205261169255D-07  9.758D-09
   37.750000    1.2144840625239D-07  9.710D-09
   37.812500    1.2084817897038D-07  9.662D-09
   37.875000    1.2025189719224D-07  9.614D-09
   37.937500    1.1965952858445D-07  9.567D-09
   38.000000    1.1907104113059D-07  9.520D-09
   38.062500    1.1848640312766D-07  9.473D-09
   38.125000    1.1790558318259D-07  9.427D-09
   38.187500    1.1732855020866D-07  9.380D-09
   38.250000    1.1675527342203D-07  9.335D-09
   38.312500    1.1618572233833D-07  9.289D-09
   38.375000    1.1561986676928D-07  9.244D-09
   38.437500    1.1505767681929D-07  9.199D-09
   38.500000    1.1449912288222D-07  9.154D-09
   38.562500    1.1394417563805D-07  9.110D-09
   38.625000    1.1339280604976D-07  9.066D-09
   38.687500    1.1284498536005D-07  9.022D-09
   38.750000    1.1230068508830D-07  8.979D-09
   38.812500    1.1175987702738D-07  8.935D-09
   38.875000    1.1122253324067D-07  8.892D-09
   38.937500    1.1068862605900D-07  8.850D-09
   39.000000    1.1015812807770D-07  8.807D-09
   39.062500    1.0963101215363D-07  8.765D-09
   39.125000    1.0910725140229D-07  8.723D-09
   39.187500    1.0858681919495D-07  8.682D-09
   39.250000    1.0806968915584D-07  8.640D-09
   39.312500    1.0755583515932D-07  8.599D-09
   39.375000    1.0704523132712D-07  8.558D-09
   39.437500    1.0653785202565D-07  8.518D-09
   39.500000    1.0603367186332D-07  8.477D-09
   39.562500    1.0553266568779D-07  8.437D-09
   39.625000    1.0503480858344D-07  8.398D-09
   39.687500    1.0454007586875D-07  8.358D-09
   39.750000    1.0404844309373D-07  8.319D-09
   39.812500    1.0355988603741D-07  8.280D-09
   39.875000    1.0307438070532D-07  8.241D-09
   39.937500    1.0259190332702D-07  8.202D-09
   40.000000    1.0211243035375D-07  8.164D-09
   40.062500    1.0163593845591D-07  8.126D-09
   40.125000    1.0116240452074D-07  8.088D-09
   40.187500    1.0069180564998D-07  8.050D-09
   40.250000    1.0022411915756D-07  8.013D-09
   40.312500    9.9759322567306D-08  7.976D-09
   40.375000    9.9297393610625D-08  7.939D-09
   40.437500    9.8838310224342D-08  7.902D-09
   40.500000    9.8382050548512D-08  7.866D-09
   40.562500    9.7928592924150D-08  7.829D-09
   40.625000    9.7477915891174D-08  7.793D-09
   40.687500    9.7029998186226D-08  7.758D-09
   40.750000    9.6584818740608D-08  7.722D-09
   40.812500    9.6142356678148D-08  7.687D-09
   40.875000    9.5702591313253D-08  7.651D-09
   40.937500    9.5265502148770D-08  7.617D-09
   41.000000    9.4831068874067D-08  7.582D-09
   41.062500    9.4399271363060D-08  7.547D-09
   41.125000    9.3970089672178D-08  7.513D-09
   41.187500    9.3543504038564D-08  7.479D-09