
variables = "r", "tA(r)", "Uncertainty"
zone T = "State 2 qA(r)  77N16p6q3Rf4_40C3ReD"

    1.500000   -1.3340335455000D-04  1.112D-05
    1.562500   -1.2781365795974D-04  1.065D-05
    1.625000   -1.2203005730059D-04  1.017D-05
    1.687500   -1.1608306567222D-04  9.675D-06
    1.750000   -1.1000490029466D-04  9.168D-06
    1.812500   -1.0382893850794D-04  8.654D-06
    1.875000   -9.7589159938232D-05  8.134D-06
    1.937500   -9.1319591192819D-05  7.611D-06
    2.000000   -8.5053768867008D-05  7.089D-06
    2.062500   -7.8824235357213D-05  6.570D-06
    2.125000   -7.2662080081826D-05  6.056D-06
    2.187500   -6.6596536356208D-05  5.550D-06
    2.250000   -6.0654641511528D-05  5.055D-06
    2.312500   -5.4860965057444D-05  4.572D-06
    2.375000   -4.9237406927190D-05  4.104D-06
    2.437500   -4.3803065253833D-05  3.651D-06
    2.500000   -3.8574170824819D-05  3.215D-06
    2.562500   -3.3564083433238D-05  2.797D-06
    2.625000   -2.8783343839542D-05  2.399D-06
    2.687500   -2.4239773995445D-05  2.020D-06
    2.750000   -1.9938617552400D-05  1.662D-06
    2.812500   -1.5882712446951D-05  1.324D-06
    2.875000   -1.2072687473815D-05  1.006D-06
    2.937500   -8.5071751634627D-06  7.090D-07
    3.000000   -5.1830339079508D-06  4.320D-07
    3.062500   -2.0955730610678D-06  1.747D-07
    3.125000    7.6122438528901D-07  6.344D-08
    3.187500    3.3944860314409D-06  2.829D-07
    3.250000    5.8122447811566D-06  4.844D-07
    3.312500    8.0232467415178D-06  6.687D-07
    3.375000    1.0036774221430D-05  8.365D-07
    3.437500    1.1862485027347D-05  9.887D-07
    3.500000    1.3510268639427D-05  1.126D-06
    3.562500    1.4990119335392D-05  1.249D-06
    3.625000    1.6312025911033D-05  1.360D-06
    3.687500    1.7485877319937D-05  1.457D-06
    3.750000    1.8521383312546D-05  1.544D-06
    3.812500    1.9428008986197D-05  1.619D-06
    3.875000    2.0214922052989D-05  1.685D-06
    3.937500    2.0890951580681D-05  1.741D-06
    4.000000    2.1464556953199D-05  1.789D-06
    4.062500    2.1943805822555D-05  1.829D-06
    4.125000    2.2336359874726D-05  1.862D-06
    4.187500    2.2649467301018D-05  1.888D-06
    4.250000    2.2889960947653D-05  1.908D-06
    4.312500    2.3064261204640D-05  1.922D-06
    4.375000    2.3178382786349D-05  1.932D-06
    4.437500    2.3237944647482D-05  1.937D-06
    4.500000    2.3248182366872D-05  1.938D-06
    4.562500    2.3213962416027D-05  1.935D-06
    4.625000    2.3139797808378D-05  1.929D-06
    4.687500    2.3029864698066D-05  1.919D-06
    4.750000    2.2888019563403D-05  1.908D-06
    4.812500    2.2717816669836D-05  1.893D-06
    4.875000    2.2522525560340D-05  1.877D-06
    4.937500    2.2305148368036D-05  1.859D-06
    5.000000    2.2068436786764D-05  1.839D-06
    5.062500    2.1814908570801D-05  1.818D-06
    5.125000    2.1546863465351D-05  1.796D-06
    5.187500    2.1266398495366D-05  1.772D-06
    5.250000    2.0975422562095D-05  1.748D-06
    5.312500    2.0675670315035D-05  1.723D-06
    5.375000    2.0368715282046D-05  1.698D-06
    5.437500    2.0055982252734D-05  1.672D-06
    5.500000    1.9738758920164D-05  1.645D-06
    5.562500    1.9418206793841D-05  1.618D-06
    5.625000    1.9095371403087D-05  1.591D-06
    5.687500    1.8771191814560D-05  1.564D-06
    5.750000    1.8446509491119D-05  1.537D-06
    5.812500    1.8122076521604D-05  1.510D-06
    5.875000    1.7798563252624D-05  1.483D-06
    5.937500    1.7476565354285D-05  1.457D-06
    6.000000    1.7156610352019D-05  1.430D-06
    6.062500    1.6839163656500D-05  1.403D-06
    6.125000    1.6524634123071D-05  1.377D-06
    6.187500    1.6213379171255D-05  1.351D-06
    6.250000    1.5905709493923D-05  1.326D-06
    6.312500    1.5601893384466D-05  1.300D-06
    6.375000    1.5302160709050D-05  1.275D-06
    6.437500    1.5006706549675D-05  1.251D-06
    6.500000    1.4715694542348D-05  1.226D-06
    6.562500    1.4429259933320D-05  1.203D-06
    6.625000    1.4147512374912D-05  1.179D-06
    6.687500    1.3870538481114D-05  1.156D-06
    6.750000    1.3598404161821D-05  1.133D-06
    6.812500    1.3331156753278D-05  1.111D-06
    6.875000    1.3068826961100D-05  1.089D-06
    6.937500    1.2811430631064D-05  1.068D-06
    7.000000    1.2558970361749D-05  1.047D-06
    7.062500    1.2311436972087D-05  1.026D-06
    7.125000    1.2068810835874D-05  1.006D-06
    7.187500    1.1831063094379D-05  9.861D-07
    7.250000    1.1598156757340D-05  9.666D-07
    7.312500    1.1370047701803D-05  9.476D-07
    7.375000    1.1146685577523D-05  9.290D-07
    7.437500    1.0928014626963D-05  9.108D-07
    7.500000    1.0713974427242D-05  8.930D-07
    7.562500    1.0504500560822D-05  8.755D-07
    7.625000    1.0299525221133D-05  8.584D-07
    7.687500    1.0098977758860D-05  8.417D-07
    7.750000    9.9027851740984D-06  8.253D-07
    7.812500    9.7108725591852D-06  8.093D-07
    7.875000    9.5231634965879D-06  7.937D-07
    7.937500    9.3395804158690D-06  7.784D-07
    8.000000    9.1600449134057D-06  7.634D-07
    8.062500    8.9844780382259D-06  7.488D-07
    8.125000    8.8128005470385D-06  7.345D-07
    8.187500    8.6449331312672D-06  7.205D-07
    8.250000    8.4807966186588D-06  7.068D-07
    8.312500    8.3203121518121D-06  6.935D-07
    8.375000    8.1634013457696D-06  6.804D-07
    8.437500    8.0099864266302D-06  6.676D-07
    8.500000    7.8599903529665D-06  6.551D-07
    8.562500    7.7133369216767D-06  6.429D-07
    8.625000    7.5699508597558D-06  6.309D-07
    8.687500    7.4297579033421D-06  6.192D-07
    8.750000    7.2926848652719D-06  6.078D-07
    8.812500    7.1586596922687D-06  5.966D-07
    8.875000    7.0276115127912D-06  5.857D-07
    8.937500    6.8994706764737D-06  5.750D-07
    9.000000    6.7741687860083D-06  5.646D-07
    9.062500    6.6516387222409D-06  5.544D-07
    9.125000    6.5318146631871D-06  5.444D-07
    9.187500    6.4146320976033D-06  5.346D-07
    9.250000    6.3000278336988D-06  5.251D-07
    9.312500    6.1879400035125D-06  5.157D-07
    9.375000    6.0783080634373D-06  5.066D-07
    9.437500    5.9710727913253D-06  4.977D-07
    9.500000    5.8661762805694D-06  4.889D-07
    9.562500    5.7635619315192D-06  4.804D-07
    9.625000    5.6631744405552D-06  4.720D-07
    9.687500    5.5649597871163D-06  4.638D-07
    9.750000    5.4688652189442D-06  4.558D-07
    9.812500    5.3748392357867D-06  4.480D-07
    9.875000    5.2828315717771D-06  4.403D-07
    9.937500    5.1927931766838D-06  4.328D-07
   10.000000    5.1046761962092D-06  4.254D-07
   10.062500    5.0184339514953D-06  4.183D-07
   10.125000    4.9340209179795D-06  4.112D-07
   10.187500    4.8513927037300D-06  4.043D-07
   10.250000    4.7705060273755D-06  3.976D-07
   10.312500    4.6913186957328D-06  3.910D-07
   10.375000    4.6137895812247D-06  3.845D-07
   10.437500    4.5378785991705D-06  3.782D-07
   10.500000    4.4635466850240D-06  3.720D-07
   10.562500    4.3907557716217D-06  3.659D-07
   10.625000    4.3194687665015D-06  3.600D-07
   10.687500    4.2496495293420D-06  3.542D-07
   10.750000    4.1812628495675D-06  3.485D-07
   10.812500    4.1142744241575D-06  3.429D-07
   10.875000    4.0486508356968D-06  3.374D-07
   10.937500    3.9843595306945D-06  3.321D-07
   11.000000    3.9213687981981D-06  3.268D-07
   11.062500    3.8596477487259D-06  3.217D-07
   11.125000    3.7991662935340D-06  3.166D-07
   11.187500    3.7398951242371D-06  3.117D-07
   11.250000    3.6818056927922D-06  3.069D-07
   11.312500    3.6248701918592D-06  3.021D-07
   11.375000    3.5690615355447D-06  2.975D-07
   11.437500    3.5143533405358D-06  2.929D-07
   11.500000    3.4607199076293D-06  2.884D-07
   11.562500    3.4081362036586D-06  2.840D-07
   11.625000    3.3565778438199D-06  2.798D-07
   11.687500    3.3060210743989D-06  2.755D-07
   11.750000    3.2564427558967D-06  2.714D-07
   11.812500    3.2078203465532D-06  2.674D-07
   11.875000    3.1601318862658D-06  2.634D-07
   11.937500    3.1133559808995D-06  2.595D-07
   12.000000    3.0674717869859D-06  2.557D-07
   12.062500    3.0224589968042D-06  2.519D-07
   12.125000    2.9782978238416D-06  2.482D-07
   12.187500    2.9349689886257D-06  2.446D-07
   12.250000    2.8924537049247D-06  2.411D-07
   12.312500    2.8507336663073D-06  2.376D-07
   12.375000    2.8097910330582D-06  2.342D-07
   12.437500    2.7696084194407D-06  2.308D-07
   12.500000    2.7301688813003D-06  2.275D-07
   12.562500    2.6914559040024D-06  2.243D-07
   12.625000    2.6534533906978D-06  2.212D-07
   12.687500    2.6161456509065D-06  2.180D-07
   12.750000    2.5795173894162D-06  2.150D-07
   12.812500    2.5435536954851D-06  2.120D-07
   12.875000    2.5082400323439D-06  2.090D-07
   12.937500    2.4735622269889D-06  2.062D-07
   13.000000    2.4395064602594D-06  2.033D-07
   13.062500    2.4060592571926D-06  2.005D-07
   13.125000    2.3732074776487D-06  1.978D-07
   13.187500    2.3409383071991D-06  1.951D-07
   13.250000    2.3092392482715D-06  1.925D-07
   13.312500    2.2780981115451D-06  1.899D-07
   13.375000    2.2475030075887D-06  1.873D-07
   13.437500    2.2174423387353D-06  1.848D-07
   13.500000    2.1879047911884D-06  1.824D-07
   13.562500    2.1588793273508D-06  1.799D-07
   13.625000    2.1303551783726D-06  1.776D-07
   13.687500    2.1023218369107D-06  1.752D-07
   13.750000    2.0747690500943D-06  1.729D-07
   13.812500    2.0476868126916D-06  1.707D-07
   13.875000    2.0210653604696D-06  1.684D-07
   13.937500    1.9948951637448D-06  1.663D-07
   14.000000    1.9691669211167D-06  1.641D-07
   14.062500    1.9438715533803D-06  1.620D-07
   14.125000    1.9190001976119D-06  1.599D-07
   14.187500    1.8945442014234D-06  1.579D-07
   14.250000    1.8704951173806D-06  1.559D-07
   14.312500    1.8468446975799D-06  1.539D-07
   14.375000    1.8235848883793D-06  1.520D-07
   14.437500    1.8007078252799D-06  1.501D-07
   14.500000    1.7782058279520D-06  1.482D-07
   14.562500    1.7560713954028D-06  1.464D-07
   14.625000    1.7342972012811D-06  1.445D-07
   14.687500    1.7128760893152D-06  1.428D-07
   14.750000    1.6918010688795D-06  1.410D-07
   14.812500    1.6710653106870D-06  1.393D-07
   14.875000    1.6506621426030D-06  1.376D-07
   14.937500    1.6305850455771D-06  1.359D-07
   15.000000    1.6108276496898D-06  1.343D-07
   15.062500    1.5913837303101D-06  1.326D-07
   15.125000    1.5722472043613D-06  1.310D-07
   15.187500    1.5534121266915D-06  1.295D-07
   15.250000    1.5348726865454D-06  1.279D-07
   15.312500    1.5166232041353D-06  1.264D-07
   15.375000    1.4986581273075D-06  1.249D-07
   15.437500    1.4809720283016D-06  1.234D-07
   15.500000    1.4635596006003D-06  1.220D-07
   15.562500    1.4464156558659D-06  1.206D-07
   15.625000    1.4295351209628D-06  1.191D-07
   15.687500    1.4129130350620D-06  1.178D-07
   15.750000    1.3965445468247D-06  1.164D-07
   15.812500    1.3804249116654D-06  1.151D-07
   15.875000    1.3645494890885D-06  1.137D-07
   15.937500    1.3489137400990D-06  1.124D-07
   16.000000    1.3335132246844D-06  1.111D-07
   16.062500    1.3183435993645D-06  1.099D-07
   16.125000    1.3034006148092D-06  1.086D-07
   16.187500    1.2886801135205D-06  1.074D-07
   16.250000    1.2741780275778D-06  1.062D-07
   16.312500    1.2598903764444D-06  1.050D-07
   16.375000    1.2458132648331D-06  1.038D-07
   16.437500    1.2319428806299D-06  1.027D-07
   16.500000    1.2182754928736D-06  1.015D-07
   16.562500    1.2048074497894D-06  1.004D-07
   16.625000    1.1915351768754D-06  9.931D-08
   16.687500    1.1784551750409D-06  9.822D-08
   16.750000    1.1655640187938D-06  9.714D-08
   16.812500    1.1528583544764D-06  9.608D-08
   16.875000    1.1403348985484D-06  9.504D-08
   16.937500    1.1279904359157D-06  9.401D-08
   17.000000    1.1158218183026D-06  9.300D-08
   17.062500    1.1038259626677D-06  9.200D-08
   17.125000    1.0919998496619D-06  9.101D-08
   17.187500    1.0803405221255D-06  9.004D-08
   17.250000    1.0688450836265D-06  8.908D-08
   17.312500    1.0575106970360D-06  8.814D-08
   17.375000    1.0463345831412D-06  8.721D-08
   17.437500    1.0353140192944D-06  8.629D-08
   17.500000    1.0244463380974D-06  8.538D-08
   17.562500    1.0137289261197D-06  8.449D-08
   17.625000    1.0031592226496D-06  8.361D-08
   17.687500    9.9273471847868D-07  8.274D-08
   17.750000    9.8245295471604D-07  8.188D-08
   17.812500    9.7231152163410D-07  8.104D-08
   17.875000    9.6230805754347D-07  8.020D-08
   17.937500    9.5244024769677D-07  7.938D-08
   18.000000    9.4270582322021D-07  7.857D-08
   18.062500    9.3310256007256D-07  7.777D-08
   18.125000    9.2362827803036D-07  7.698D-08
   18.187500    9.1428083969883D-07  7.620D-08
   18.250000    9.0505814954787D-07  7.543D-08
   18.312500    8.9595815297219D-07  7.467D-08
   18.375000    8.8697883537508D-07  7.392D-08
   18.437500    8.7811822127521D-07  7.319D-08
   18.500000    8.6937437343567D-07  7.246D-08
   18.562500    8.6074539201479D-07  7.174D-08
   18.625000    8.5222941373799D-07  7.103D-08
   18.687500    8.4382461109029D-07  7.033D-08
   18.750000    8.3552919152871D-07  6.964D-08
   18.812500    8.2734139671413D-07  6.895D-08
   18.875000    8.1925950176210D-07  6.828D-08
   18.937500    8.1128181451203D-07  6.762D-08
   19.000000    8.0340667481426D-07  6.696D-08
   19.062500    7.9563245383456D-07  6.631D-08
   19.125000    7.8795755337565D-07  6.567D-08
   19.187500    7.8038040521510D-07  6.504D-08
   19.250000    7.7289947045941D-07  6.442D-08
   19.312500    7.6551323891361D-07  6.380D-08
   19.375000    7.5822022846615D-07  6.319D-08
   19.437500    7.5101898448855D-07  6.259D-08
   19.500000    7.4390807924952D-07  6.200D-08
   19.562500    7.3688611134305D-07  6.142D-08
   19.625000    7.2995170513019D-07  6.084D-08
   19.687500    7.2310351019415D-07  6.027D-08
   19.750000    7.1634020080833D-07  5.970D-08
   19.812500    7.0966047541696D-07  5.915D-08
   19.875000    7.0306305612806D-07  5.860D-08
   19.937500    6.9654668821832D-07  5.805D-08
   20.000000    6.9011013964966D-07  5.752D-08
   20.062500    6.8375220059713D-07  5.699D-08
   20.125000    6.7747168298784D-07  5.646D-08
   20.187500    6.7126742005072D-07  5.595D-08
   20.250000    6.6513826587671D-07  5.544D-08
   20.312500    6.5908309498918D-07  5.493D-08
   20.375000    6.5310080192437D-07  5.443D-08
   20.437500    6.4719030082143D-07  5.394D-08
   20.500000    6.4135052502202D-07  5.345D-08
   20.562500    6.3558042667902D-07  5.297D-08
   20.625000    6.2987897637434D-07  5.250D-08
   20.687500    6.2424516274534D-07  5.203D-08
   20.750000    6.1867799211992D-07  5.156D-08
   20.812500    6.1317648815983D-07  5.110D-08
   20.875000    6.0773969151208D-07  5.065D-08
   20.937500    6.0236665946837D-07  5.020D-08
   21.000000    5.9705646563205D-07  4.976D-08
   21.062500    5.9180819959271D-07  4.932D-08
   21.125000    5.8662096660808D-07  4.889D-08
   21.187500    5.8149388729301D-07  4.846D-08
   21.250000    5.7642609731544D-07  4.804D-08
   21.312500    5.7141674709923D-07  4.762D-08
   21.375000    5.6646500153352D-07  4.721D-08
   21.437500    5.6157003968851D-07  4.680D-08
   21.500000    5.5673105453772D-07  4.640D-08
   21.562500    5.5194725268620D-07  4.600D-08
   21.625000    5.4721785410485D-07  4.561D-08
   21.687500    5.4254209187052D-07  4.522D-08
   21.750000    5.3791921191188D-07  4.483D-08
   21.812500    5.3334847276080D-07  4.445D-08
   21.875000    5.2882914530917D-07  4.408D-08
   21.937500    5.2436051257104D-07  4.370D-08
   22.000000    5.1994186944992D-07  4.333D-08
   22.062500    5.1557252251112D-07  4.297D-08
   22.125000    5.1125178975899D-07  4.261D-08
   22.187500    5.0697900041905D-07  4.225D-08
   22.250000    5.0275349472471D-07  4.190D-08
   22.312500    4.9857462370862D-07  4.155D-08
   22.375000    4.9444174899848D-07  4.121D-08
   22.437500    4.9035424261724D-07  4.087D-08
   22.500000    4.8631148678748D-07  4.053D-08
   22.562500    4.8231287374008D-07  4.020D-08
   22.625000    4.7835780552680D-07  3.987D-08
   22.687500    4.7444569383693D-07  3.954D-08
   22.750000    4.7057595981780D-07  3.922D-08
   22.812500    4.6674803389902D-07  3.890D-08
   22.875000    4.6296135562044D-07  3.859D-08
   22.937500    4.5921537346372D-07  3.827D-08
   23.000000    4.5550954468747D-07  3.796D-08
   23.062500    4.5184333516570D-07  3.766D-08
   23.125000    4.4821621922980D-07  3.736D-08
   23.187500    4.4462767951359D-07  3.706D-08
   23.250000    4.4107720680185D-07  3.676D-08
   23.312500    4.3756429988172D-07  3.647D-08
   23.375000    4.3408846539730D-07  3.618D-08
   23.437500    4.3064921770723D-07  3.589D-08
   23.500000    4.2724607874520D-07  3.561D-08
   23.562500    4.2387857788322D-07  3.533D-08
   23.625000    4.2054625179783D-07  3.505D-08
   23.687500    4.1724864433888D-07  3.478D-08
   23.750000    4.1398530640114D-07  3.450D-08
   23.812500    4.1075579579838D-07  3.423D-08
   23.875000    4.0755967714002D-07  3.397D-08
   23.937500    4.0439652171036D-07  3.370D-08
   24.000000    4.0126590735014D-07  3.344D-08
   24.062500    3.9816741834050D-07  3.319D-08
   24.125000    3.9510064528933D-07  3.293D-08
   24.187500    3.9206518501978D-07  3.268D-08
   24.250000    3.8906064046113D-07  3.243D-08
   24.312500    3.8608662054168D-07  3.218D-08
   24.375000    3.8314274008393D-07  3.193D-08
   24.437500    3.8022861970168D-07  3.169D-08
   24.500000    3.7734388569927D-07  3.145D-08
   24.562500    3.7448816997278D-07  3.121D-08
   24.625000    3.7166110991315D-07  3.098D-08
   24.687500    3.6886234831122D-07  3.074D-08
   24.750000    3.6609153326461D-07  3.051D-08
   24.812500    3.6334831808651D-07  3.028D-08
   24.875000    3.6063236121609D-07  3.006D-08
   24.937500    3.5794332613076D-07  2.983D-08
   25.000000    3.5528088126015D-07  2.961D-08
   25.062500    3.5264469990167D-07  2.939D-08
   25.125000    3.5003446013778D-07  2.917D-08
   25.187500    3.4744984475478D-07  2.896D-08
   25.250000    3.4489054116325D-07  2.874D-08
   25.312500    3.4235624131993D-07  2.853D-08
   25.375000    3.3984664165119D-07  2.832D-08
   25.437500    3.3736144297781D-07  2.812D-08
   25.500000    3.3490035044143D-07  2.791D-08
   25.562500    3.3246307343212D-07  2.771D-08
   25.625000    3.3004932551753D-07  2.751D-08
   25.687500    3.2765882437332D-07  2.731D-08
   25.750000    3.2529129171490D-07  2.711D-08
   25.812500    3.2294645323041D-07  2.692D-08
   25.875000    3.2062403851505D-07  2.672D-08
   25.937500    3.1832378100657D-07  2.653D-08
   26.000000    3.1604541792204D-07  2.634D-08
   26.062500    3.1378869019569D-07  2.615D-08
   26.125000    3.1155334241803D-07  2.597D-08
   26.187500    3.0933912277603D-07  2.578D-08
   26.250000    3.0714578299437D-07  2.560D-08
   26.312500    3.0497307827797D-07  2.542D-08
   26.375000    3.0282076725529D-07  2.524D-08
   26.437500    3.0068861192295D-07  2.506D-08
   26.500000    2.9857637759120D-07  2.488D-08
   26.562500    2.9648383283042D-07  2.471D-08
   26.625000    2.9441074941867D-07  2.454D-08
   26.687500    2.9235690229014D-07  2.437D-08
   26.750000    2.9032206948450D-07  2.420D-08
   26.812500    2.8830603209731D-07  2.403D-08
   26.875000    2.8630857423115D-07  2.386D-08
   26.937500    2.8432948294779D-07  2.370D-08
   27.000000    2.8236854822113D-07  2.353D-08
   27.062500    2.8042556289103D-07  2.337D-08
   27.125000    2.7850032261798D-07  2.321D-08
   27.187500    2.7659262583854D-07  2.305D-08
   27.250000    2.7470227372160D-07  2.289D-08
   27.312500    2.7282907012548D-07  2.274D-08
   27.375000    2.7097282155566D-07  2.258D-08
   27.437500    2.6913333712344D-07  2.243D-08
   27.500000    2.6731042850514D-07  2.228D-08
   27.562500    2.6550390990221D-07  2.213D-08
   27.625000    2.6371359800194D-07  2.198D-08
   27.687500    2.6193931193883D-07  2.183D-08
   27.750000    2.6018087325675D-07  2.168D-08
   27.812500    2.5843810587172D-07  2.154D-08
   27.875000    2.5671083603528D-07  2.140D-08
   27.937500    2.5499889229860D-07  2.125D-08
   28.000000    2.5330210547714D-07  2.111D-08
   28.062500    2.5162030861597D-07  2.097D-08
   28.125000    2.4995333695574D-07  2.083D-08
   28.187500    2.4830102789905D-07  2.069D-08
   28.250000    2.4666322097767D-07  2.056D-08
   28.312500    2.4503975782011D-07  2.042D-08
   28.375000    2.4343048211988D-07  2.029D-08
   28.437500    2.4183523960422D-07  2.016D-08
   28.500000    2.4025387800338D-07  2.002D-08
   28.562500    2.3868624702051D-07  1.989D-08
   28.625000    2.3713219830192D-07  1.976D-08
   28.687500    2.3559158540800D-07  1.964D-08
   28.750000    2.3406426378448D-07  1.951D-08
   28.812500    2.3255009073435D-07  1.938D-08
   28.875000    2.3104892539010D-07  1.926D-08
   28.937500    2.2956062868652D-07  1.913D-08
   29.000000    2.2808506333398D-07  1.901D-08
   29.062500    2.2662209379201D-07  1.889D-08
   29.125000    2.2517158624357D-07  1.877D-08
   29.187500    2.2373340856952D-07  1.865D-08
   29.250000    2.2230743032366D-07  1.853D-08
   29.312500    2.2089352270812D-07  1.841D-08
   29.375000    2.1949155854918D-07  1.829D-08
   29.437500    2.1810141227352D-07  1.818D-08
   29.500000    2.1672295988484D-07  1.806D-08
   29.562500    2.1535607894084D-07  1.795D-08
   29.625000    2.1400064853064D-07  1.784D-08
   29.687500    2.1265654925253D-07  1.772D-08
   29.750000    2.1132366319212D-07  1.761D-08
   29.812500    2.1000187390081D-07  1.750D-08
   29.875000    2.0869106637464D-07  1.739D-08
   29.937500    2.0739112703348D-07  1.728D-08
   30.000000    2.0610194370061D-07  1.718D-08
   30.062500    2.0482340558252D-07  1.707D-08
   30.125000    2.0355540324913D-07  1.697D-08
   30.187500    2.0229782861432D-07  1.686D-08
   30.250000    2.0105057491676D-07  1.676D-08
   30.312500    1.9981353670106D-07  1.665D-08
   30.375000    1.9858660979922D-07  1.655D-08
   30.437500    1.9736969131235D-07  1.645D-08
   30.500000    1.9616267959278D-07  1.635D-08
   30.562500    1.9496547422631D-07  1.625D-08
   30.625000    1.9377797601491D-07  1.615D-08
   30.687500    1.9260008695954D-07  1.605D-08
   30.750000    1.9143171024339D-07  1.595D-08
   30.812500    1.9027275021528D-07  1.586D-08
   30.875000    1.8912311237333D-07  1.576D-08
   30.937500    1.8798270334900D-07  1.567D-08
   31.000000    1.8685143089123D-07  1.557D-08
   31.062500    1.8572920385098D-07  1.548D-08
   31.125000    1.8461593216584D-07  1.539D-08
   31.187500    1.8351152684508D-07  1.529D-08
   31.250000    1.8241589995481D-07  1.520D-08
   31.312500    1.8132896460335D-07  1.511D-08
   31.375000    1.8025063492697D-07  1.502D-08
   31.437500    1.7918082607569D-07  1.493D-08
   31.500000    1.7811945419941D-07  1.485D-08
   31.562500    1.7706643643424D-07  1.476D-08
   31.625000    1.7602169088897D-07  1.467D-08
   31.687500    1.7498513663186D-07  1.458D-08
   31.750000    1.7395669367758D-07  1.450D-08
   31.812500    1.7293628297431D-07  1.441D-08
   31.875000    1.7192382639112D-07  1.433D-08
   31.937500    1.7091924670549D-07  1.425D-08
   32.000000    1.6992246759106D-07  1.416D-08
   32.062500    1.6893341360552D-07  1.408D-08
   32.125000    1.6795201017873D-07  1.400D-08
   32.187500    1.6697818360101D-07  1.392D-08
   32.250000    1.6601186101161D-07  1.384D-08
   32.312500    1.6505297038729D-07  1.376D-08
   32.375000    1.6410144053124D-07  1.368D-08
   32.437500    1.6315720106197D-07  1.360D-08
   32.500000    1.6222018240252D-07  1.352D-08
   32.562500    1.6129031576971D-07  1.344D-08
   32.625000    1.6036753316371D-07  1.337D-08
   32.687500    1.5945176735758D-07  1.329D-08
   32.750000    1.5854295188713D-07  1.321D-08
   32.812500    1.5764102104082D-07  1.314D-08
   32.875000    1.5674590984989D-07  1.306D-08
   32.937500    1.5585755407857D-07  1.299D-08
   33.000000    1.5497589021448D-07  1.292D-08
   33.062500    1.5410085545922D-07  1.284D-08
   33.125000    1.5323238771894D-07  1.277D-08
   33.187500    1.5237042559521D-07  1.270D-08
   33.250000    1.5151490837601D-07  1.263D-08
   33.312500    1.5066577602674D-07  1.256D-08
   33.375000    1.4982296918142D-07  1.249D-08
   33.437500    1.4898642913416D-07  1.242D-08
   33.500000    1.4815609783051D-07  1.235D-08
   33.562500    1.4733191785908D-07  1.228D-08
   33.625000    1.4651383244331D-07  1.221D-08
   33.687500    1.4570178543326D-07  1.214D-08
   33.750000    1.4489572129760D-07  1.208D-08
   33.812500    1.4409558511569D-07  1.201D-08
   33.875000    1.4330132256973D-07  1.194D-08
   33.937500    1.4251287993716D-07  1.188D-08
   34.000000    1.4173020408298D-07  1.181D-08
   34.062500    1.4095324245233D-07  1.175D-08
   34.125000    1.4018194306312D-07  1.168D-08
   34.187500    1.3941625449878D-07  1.162D-08
   34.250000    1.3865612590111D-07  1.156D-08
   34.312500    1.3790150696319D-07  1.149D-08
   34.375000    1.3715234792253D-07  1.143D-08
   34.437500    1.3640859955408D-07  1.137D-08
   34.500000    1.3567021316364D-07  1.131D-08
   34.562500    1.3493714058104D-07  1.125D-08
   34.625000    1.3420933415376D-07  1.119D-08
   34.687500    1.3348674674032D-07  1.113D-08
   34.750000    1.3276933170395D-07  1.107D-08
   34.812500    1.3205704290638D-07  1.101D-08
   34.875000    1.3134983470152D-07  1.095D-08
   34.937500    1.3064766192946D-07  1.089D-08
   35.000000    1.2995047991042D-07  1.083D-08
   35.062500    1.2925824443878D-07  1.077D-08
   35.125000    1.2857091177725D-07  1.072D-08
   35.187500    1.2788843865114D-07  1.066D-08
   35.250000    1.2721078224263D-07  1.060D-08
   35.312500    1.2653790018515D-07  1.055D-08
   35.375000    1.2586975055791D-07  1.049D-08
   35.437500    1.2520629188036D-07  1.044D-08
   35.500000    1.2454748310692D-07  1.038D-08
   35.562500    1.2389328362156D-07  1.033D-08
   35.625000    1.2324365323269D-07  1.027D-08
   35.687500    1.2259855216790D-07  1.022D-08
   35.750000    1.2195794106897D-07  1.016D-08
   35.812500    1.2132178098674D-07  1.011D-08
   35.875000    1.2069003337630D-07  1.006D-08
   35.937500    1.2006266009202D-07  1.001D-08
   36.000000    1.1943962338275D-07  9.955D-09
   36.062500    1.1882088588710D-07  9.903D-09
   36.125000    1.1820641062877D-07  9.852D-09
   36.187500    1.1759616101189D-07  9.801D-09
   36.250000    1.1699010081653D-07  9.750D-09
   36.312500    1.1638819419413D-07  9.700D-09
   36.375000    1.1579040566316D-07  9.651D-09
   36.437500    1.1519670010467D-07  9.601D-09
   36.500000    1.1460704275804D-07  9.552D-09
   36.562500    1.1402139921669D-07  9.503D-09
   36.625000    1.1343973542393D-07  9.455D-09
   36.687500    1.1286201766876D-07  9.406D-09
   36.750000    1.1228821258184D-07  9.359D-09
   36.812500    1.1171828713146D-07  9.311D-09
   36.875000    1.1115220861953D-07  9.264D-09
   36.937500    1.1058994467769D-07  9.217D-09
   37.000000    1.1003146326346D-07  9.171D-09
   37.062500    1.0947673265637D-07  9.124D-09
   37.125000    1.0892572145425D-07  9.078D-09
   37.187500    1.0837839856948D-07  9.033D-09
   37.250000    1.0783473322536D-07  8.987D-09
   37.312500    1.0729469495245D-07  8.942D-09
   37.375000    1.0675825358503D-07  8.898D-09
   37.437500    1.0622537925759D-07  8.853D-09
   37.500000    1.0569604240130D-07  8.809D-09
   37.562500    1.0517021374067D-07  8.765D-09
   37.625000    1.0464786429009D-07  8.722D-09
   37.687500    1.0412896535051D-07  8.679D-09
   37.750000    1.0361348850616D-07  8.636D-09
   37.812500    1.0310140562129D-07  8.593D-09
   37.875000    1.0259268883698D-07  8.551D-09
   37.937500    1.0208731056789D-07  8.508D-09
   38.000000    1.0158524349927D-07  8.467D-09
   38.062500    1.0108646058376D-07  8.425D-09
   38.125000    1.0059093503838D-07  8.384D-09
   38.187500    1.0009864034155D-07  8.343D-09
   38.250000    9.9609550230083D-08  8.302D-09
   38.312500    9.9123638696279D-08  8.261D-09
   38.375000    9.8640879985035D-08  8.221D-09
   38.437500    9.8161248590979D-08  8.181D-09
   38.500000    9.7684719255663D-08  8.141D-09
   38.562500    9.7211266964765D-08  8.102D-09
   38.625000    9.6740866945377D-08  8.063D-09
   38.687500    9.6273494663266D-08  8.024D-09
   38.750000    9.5809125820208D-08  7.985D-09
   38.812500    9.5347736351343D-08  7.947D-09
   38.875000    9.4889302422579D-08  7.909D-09
   38.937500    9.4433800427996D-08  7.871D-09
   39.000000    9.3981206987347D-08  7.833D-09
   39.062500    9.3531498943485D-08  7.795D-09
   39.125000    9.3084653359948D-08  7.758D-09
   39.187500    9.2640647518472D-08  7.721D-09
   39.250000    9.2199458916598D-08  7.684D-09
   39.312500    9.1761065265274D-08  7.648D-09
   39.375000    9.1325444486487D-08  7.611D-09
   39.437500    9.0892574710999D-08  7.575D-09
   39.500000    9.0462434275973D-08  7.540D-09
   39.562500    9.0035001722749D-08  7.504D-09
   39.625000    8.9610255794602D-08  7.469D-09
   39.687500    8.9188175434517D-08  7.433D-09
   39.750000    8.8768739783013D-08  7.398D-09
   39.812500    8.8351928176022D-08  7.364D-09
   39.875000    8.7937720142673D-08  7.329D-09
   39.937500    8.7526095403284D-08  7.295D-09
   40.000000    8.7117033867224D-08  7.261D-09
   40.062500    8.6710515630898D-08  7.227D-09
   40.125000    8.6306520975688D-08  7.193D-09
   40.187500    8.5905030365989D-08  7.160D-09
   40.250000    8.5506024447183D-08  7.126D-09
   40.312500    8.5109484043754D-08  7.093D-09
   40.375000    8.4715390157303D-08  7.061D-09
   40.437500    8.4323723964663D-08  7.028D-09
   40.500000    8.3934466816046D-08  6.995D-09
   40.562500    8.3547600233128D-08  6.963D-09
   40.625000    8.3163105907270D-08  6.931D-09
   40.687500    8.2780965697658D-08  6.899D-09
   40.750000    8.2401161629567D-08  6.868D-09
   40.812500    8.2023675892535D-08  6.836D-09
   40.875000    8.1648490838644D-08  6.805D-09
   40.937500    8.1275588980805D-08  6.774D-09
   41.000000    8.0904952991043D-08  6.743D-09
   41.062500    8.0536565698777D-08  6.712D-09
   41.125000    8.0170410089221D-08  6.682D-09
   41.187500    7.9806469301684D-08  6.651D-09