
variables = "r", "B(r) ", "Uncertainty"
zone T = "State 1 B(r)   66N16p6q3Rf4_40C3ReD"

    0.000000   -6.7841871666098D+00     0.0
    0.005000   -5.1305868498484D-01     0.0
    0.010000   -5.1305843693115D-01     0.0
    0.015000   -5.1305776364257D-01     0.0
    0.020000   -5.1305645250274D-01     0.0
    0.025000   -5.1305429089826D-01     0.0
    0.030000   -5.1305106622176D-01     0.0
    0.035000   -5.1304656587597D-01     0.0
    0.040000   -5.1304057727882D-01     0.0
    0.045000   -5.1303288786962D-01     0.0
    0.050000   -5.1302328511628D-01     0.0
    0.055000   -5.1301155652344D-01     0.0
    0.060000   -5.1299748964196D-01     0.0
    0.065000   -5.1298087207905D-01     0.0
    0.070000   -5.1296149150976D-01     0.0
    0.075000   -5.1293913568933D-01     0.0
    0.080000   -5.1291359246667D-01     0.0
    0.085000   -5.1288464979886D-01     0.0
    0.090000   -5.1285209576659D-01     0.0
    0.095000   -5.1281571859084D-01     0.0
    0.100000   -5.1277530665039D-01     0.0
    0.105000   -5.1273064850041D-01     0.0
    0.110000   -5.1268153289219D-01     0.0
    0.115000   -5.1262774879376D-01     0.0
    0.120000   -5.1256908541161D-01     0.0
    0.125000   -5.1250533221338D-01     0.0
    0.130000   -5.1243627895161D-01     0.0
    0.135000   -5.1236171568847D-01     0.0
    0.140000   -5.1228143282150D-01     0.0
    0.145000   -5.1219522111039D-01     0.0
    0.150000   -5.1210287170474D-01     0.0
    0.155000   -5.1200417617268D-01     0.0
    0.160000   -5.1189892653082D-01     0.0
    0.165000   -5.1178691527473D-01     0.0
    0.170000   -5.1166793541079D-01     0.0
    0.175000   -5.1154178048873D-01     0.0
    0.180000   -5.1140824463531D-01     0.0
    0.185000   -5.1126712258888D-01     0.0
    0.190000   -5.1111820973484D-01     0.0
    0.195000   -5.1096130214211D-01     0.0
    0.200000   -5.1079619660048D-01     0.0
    0.205000   -5.1062269065893D-01     0.0
    0.210000   -5.1044058266479D-01     0.0
    0.215000   -5.1024967180380D-01     0.0
    0.220000   -5.1004975814110D-01     0.0
    0.225000   -5.0984064266310D-01     0.0
    0.230000   -5.0962212732005D-01     0.0
    0.235000   -5.0939401506980D-01     0.0
    0.240000   -5.0915610992189D-01     0.0
    0.245000   -5.0890821698299D-01     0.0
    0.250000   -5.0865014250271D-01     0.0
    0.255000   -5.0838169392055D-01     0.0
    0.260000   -5.0810267991327D-01     0.0
    0.265000   -5.0781291044332D-01     0.0
    0.270000   -5.0751219680783D-01     0.0
    0.275000   -5.0720035168842D-01     0.0
    0.280000   -5.0687718920160D-01     0.0
    0.285000   -5.0654252494997D-01     0.0
    0.290000   -5.0619617607393D-01     0.0
    0.295000   -5.0583796130433D-01     0.0
    0.300000   -5.0546770101529D-01     0.0
    0.305000   -5.0508521727810D-01     0.0
    0.310000   -5.0469033391524D-01     0.0
    0.315000   -5.0428287655536D-01     0.0
    0.320000   -5.0386267268853D-01     0.0
    0.325000   -5.0342955172207D-01     0.0
    0.330000   -5.0298334503689D-01     0.0
    0.335000   -5.0252388604419D-01     0.0
    0.340000   -5.0205101024273D-01     0.0
    0.345000   -5.0156455527638D-01     0.0
    0.350000   -5.0106436099209D-01     0.0
    0.355000   -5.0055026949824D-01     0.0
    0.360000   -5.0002212522316D-01     0.0
    0.365000   -4.9947977497414D-01     0.0
    0.370000   -4.9892306799658D-01     0.0
    0.375000   -4.9835185603333D-01     0.0
    0.380000   -4.9776599338428D-01     0.0
    0.385000   -4.9716533696618D-01     0.0
    0.390000   -4.9654974637235D-01     0.0
    0.395000   -4.9591908393276D-01     0.0
    0.400000   -4.9527321477408D-01     0.0
    0.405000   -4.9461200687954D-01     0.0
    0.410000   -4.9393533114914D-01     0.0
    0.415000   -4.9324306145956D-01     0.0
    0.420000   -4.9253507472405D-01     0.0
    0.425000   -4.9181125095220D-01     0.0
    0.430000   -4.9107147330960D-01     0.0
    0.435000   -4.9031562817723D-01     0.0
    0.440000   -4.8954360521063D-01     0.0
    0.445000   -4.8875529739887D-01     0.0
    0.450000   -4.8795060112304D-01     0.0
    0.455000   -4.8712941621463D-01     0.0
    0.460000   -4.8629164601327D-01     0.0
    0.465000   -4.8543719742418D-01     0.0
    0.470000   -4.8456598097510D-01     0.0
    0.475000   -4.8367791087269D-01     0.0
    0.480000   -4.8277290505844D-01     0.0
    0.485000   -4.8185088526385D-01     0.0
    0.490000   -4.8091177706508D-01     0.0
    0.495000   -4.7995550993685D-01     0.0
    0.500000   -4.7898201730567D-01     0.0
    0.505000   -4.7799123660214D-01     0.0
    0.510000   -4.7698310931269D-01     0.0
    0.515000   -4.7595758103017D-01     0.0
    0.520000   -4.7491460150381D-01     0.0
    0.525000   -4.7385412468797D-01     0.0
    0.530000   -4.7277610879004D-01     0.0
    0.535000   -4.7168051631743D-01     0.0
    0.540000   -4.7056731412308D-01     0.0
    0.545000   -4.6943647345028D-01     0.0
    0.550000   -4.6828796997606D-01     0.0
    0.555000   -4.6712178385345D-01     0.0
    0.560000   -4.6593789975243D-01     0.0
    0.565000   -4.6473630689971D-01     0.0
    0.570000   -4.6351699911695D-01     0.0
    0.575000   -4.6227997485779D-01     0.0
    0.580000   -4.6102523724336D-01     0.0
    0.585000   -4.5975279409626D-01     0.0
    0.590000   -4.5846265797322D-01     0.0
    0.595000   -4.5715484619592D-01     0.0
    0.600000   -4.5582938088047D-01     0.0
    0.605000   -4.5448628896505D-01     0.0
    0.610000   -4.5312560223608D-01     0.0
    0.615000   -4.5174735735241D-01     0.0
    0.620000   -4.5035159586797D-01     0.0
    0.625000   -4.4893836425250D-01     0.0
    0.630000   -4.4750771391049D-01     0.0
    0.635000   -4.4605970119826D-01     0.0
    0.640000   -4.4459438743903D-01     0.0
    0.645000   -4.4311183893620D-01     0.0
    0.650000   -4.4161212698448D-01     0.0
    0.655000   -4.4009532787917D-01     0.0
    0.660000   -4.3856152292325D-01     0.0
    0.665000   -4.3701079843243D-01     0.0
    0.670000   -4.3544324573818D-01     0.0
    0.675000   -4.3385896118846D-01     0.0
    0.680000   -4.3225804614643D-01     0.0
    0.685000   -4.3064060698681D-01     0.0
    0.690000   -4.2900675509017D-01     0.0
    0.695000   -4.2735660683484D-01     0.0
    0.700000   -4.2569028358663D-01     0.0
    0.705000   -4.2400791168620D-01     0.0
    0.710000   -4.2230962243411D-01     0.0
    0.715000   -4.2059555207360D-01     0.0
    0.720000   -4.1886584177091D-01     0.0
    0.725000   -4.1712063759329D-01     0.0
    0.730000   -4.1536009048461D-01     0.0
    0.735000   -4.1358435623854D-01     0.0
    0.740000   -4.1179359546929D-01     0.0
    0.745000   -4.0998797358007D-01     0.0
    0.750000   -4.0816766072884D-01     0.0
    0.755000   -4.0633283179187D-01     0.0
    0.760000   -4.0448366632473D-01     0.0
    0.765000   -4.0262034852080D-01     0.0
    0.770000   -4.0074306716740D-01     0.0
    0.775000   -3.9885201559935D-01     0.0
    0.780000   -3.9694739165021D-01     0.0
    0.785000   -3.9502939760094D-01     0.0
    0.790000   -3.9309824012610D-01     0.0
    0.795000   -3.9115413023778D-01     0.0
    0.800000   -3.8919728322685D-01     0.0
    0.805000   -3.8722791860197D-01     0.0
    0.810000   -3.8524626002609D-01     0.0
    0.815000   -3.8325253525052D-01     0.0
    0.820000   -3.8124697604675D-01     0.0
    0.825000   -3.7922981813576D-01     0.0
    0.830000   -3.7720130111506D-01     0.0
    0.835000   -3.7516166838340D-01     0.0
    0.840000   -3.7311116706313D-01     0.0
    0.845000   -3.7105004792035D-01     0.0
    0.850000   -3.6897856528277D-01     0.0
    0.855000   -3.6689697695538D-01     0.0
    0.860000   -3.6480554413392D-01     0.0
    0.865000   -3.6270453131617D-01     0.0
    0.870000   -3.6059420621126D-01     0.0
    0.875000   -3.5847483964667D-01     0.0
    0.880000   -3.5634670547346D-01     0.0
    0.885000   -3.5421008046928D-01     0.0
    0.890000   -3.5206524423960D-01     0.0
    0.895000   -3.4991247911695D-01     0.0
    0.900000   -3.4775207005829D-01     0.0
    0.905000   -3.4558430454067D-01     0.0
    0.910000   -3.4340947245502D-01     0.0
    0.915000   -3.4122786599834D-01     0.0
    0.920000   -3.3903977956421D-01     0.0
    0.925000   -3.3684550963169D-01     0.0
    0.930000   -3.3464535465271D-01     0.0
    0.935000   -3.3243961493807D-01     0.0
    0.940000   -3.3022859254186D-01     0.0
    0.945000   -3.2801259114474D-01     0.0
    0.950000   -3.2579191593584D-01     0.0
    0.955000   -3.2356687349346D-01     0.0
    0.960000   -3.2133777166461D-01     0.0
    0.965000   -3.1910491944366D-01     0.0
    0.970000   -3.1686862684971D-01     0.0
    0.975000   -3.1462920480327D-01     0.0
    0.980000   -3.1238696500202D-01     0.0
    0.985000   -3.1014221979577D-01     0.0
    0.990000   -3.0789528206079D-01     0.0
    0.995000   -3.0564646507350D-01     0.0
    1.000000   -3.0339608238359D-01     0.0
    1.005000   -3.0114444768675D-01     0.0
    1.010000   -2.9889187469700D-01     0.0
    1.015000   -2.9663867701870D-01     0.0
    1.020000   -2.9438516801846D-01     0.0
    1.025000   -2.9213166069680D-01     0.0
    1.030000   -2.8987846755983D-01     0.0
    1.035000   -2.8762590049102D-01     0.0
    1.040000   -2.8537427062303D-01     0.0
    1.045000   -2.8312388820984D-01     0.0
    1.050000   -2.8087506249908D-01     0.0
    1.055000   -2.7862810160490D-01     0.0
    1.060000   -2.7638331238118D-01     0.0
    1.065000   -2.7414100029544D-01     0.0
    1.070000   -2.7190146930331D-01     0.0
    1.075000   -2.6966502172375D-01     0.0
    1.080000   -2.6743195811521D-01     0.0
    1.085000   -2.6520257715255D-01     0.0
    1.090000   -2.6297717550515D-01     0.0
    1.095000   -2.6075604771588D-01     0.0
    1.100000   -2.5853948608154D-01     0.0
    1.105000   -2.5632778053429D-01     0.0
    1.110000   -2.5412121852462D-01     0.0
    1.115000   -2.5192008490564D-01     0.0
    1.120000   -2.4972466181898D-01     0.0
    1.125000   -2.4753522858220D-01     0.0
    1.130000   -2.4535206157797D-01     0.0
    1.135000   -2.4317543414493D-01     0.0
    1.140000   -2.4100561647048D-01     0.0
    1.145000   -2.3884287548537D-01     0.0
    1.150000   -2.3668747476043D-01     0.0
    1.155000   -2.3453967440528D-01     0.0
    1.160000   -2.3239973096915D-01     0.0
    1.165000   -2.3026789734408D-01     0.0
    1.170000   -2.2814442267022D-01     0.0
    1.175000   -2.2602955224359D-01     0.0
    1.180000   -2.2392352742627D-01     0.0
    1.185000   -2.2182658555903D-01     0.0
    1.190000   -2.1973895987655D-01     0.0
    1.195000   -2.1766087942524D-01     0.0
    1.200000   -2.1559256898372D-01     0.0
    1.205000   -2.1353424898607D-01     0.0
    1.210000   -2.1148613544783D-01     0.0
    1.215000   -2.0944843989483D-01     0.0
    1.220000   -2.0742136929495D-01     0.0
    1.225000   -2.0540512599275D-01     0.0
    1.230000   -2.0339990764714D-01     0.0
    1.235000   -2.0140590717201D-01     0.0
    1.240000   -1.9942331268001D-01     0.0
    1.245000   -1.9745230742933D-01     0.0
    1.250000   -1.9549306977361D-01     0.0
    1.255000   -1.9354577311515D-01     0.0
    1.260000   -1.9161058586115D-01     0.0
    1.265000   -1.8968767138324D-01     0.0
    1.270000   -1.8777718798024D-01     0.0
    1.275000   -1.8587928884421D-01     0.0
    1.280000   -1.8399412202970D-01     0.0
    1.285000   -1.8212183042640D-01     0.0
    1.290000   -1.8026255173497D-01     0.0
    1.295000   -1.7841641844626D-01     0.0
    1.300000   -1.7658355782387D-01     0.0
    1.305000   -1.7476409188989D-01     0.0
    1.310000   -1.7295813741417D-01     0.0
    1.315000   -1.7116580590668D-01     0.0
    1.320000   -1.6938720361330D-01     0.0
    1.325000   -1.6762243151490D-01     0.0
    1.330000   -1.6587158532966D-01     0.0
    1.335000   -1.6413475551870D-01     0.0
    1.340000   -1.6241202729488D-01     0.0
    1.345000   -1.6070348063492D-01     0.0
    1.350000   -1.5900919029461D-01  3.457D-02
    1.355000   -1.5732922582740D-01  3.426D-02
    1.360000   -1.5566365160575D-01  3.395D-02
    1.365000   -1.5401252684594D-01  3.363D-02
    1.370000   -1.5237590563582D-01  3.332D-02
    1.375000   -1.5075383696557D-01  3.301D-02
    1.380000   -1.4914636476140D-01  3.270D-02
    1.385000   -1.4755352792233D-01  3.239D-02
    1.390000   -1.4597536035972D-01  3.207D-02
    1.395000   -1.4441189103971D-01  3.176D-02
    1.400000   -1.4286314402845D-01  3.145D-02
    1.405000   -1.4132913854001D-01  3.114D-02
    1.410000   -1.3980988898703D-01  3.083D-02
    1.415000   -1.3830540503393D-01  3.052D-02
    1.420000   -1.3681569165269D-01  3.021D-02
    1.425000   -1.3534074918113D-01  2.990D-02
    1.430000   -1.3388057338360D-01  2.959D-02
    1.435000   -1.3243515551394D-01  2.928D-02
    1.440000   -1.3100448238089D-01  2.897D-02
    1.445000   -1.2958853641555D-01  2.867D-02
    1.450000   -1.2818729574099D-01  2.836D-02
    1.455000   -1.2680073424402D-01  2.805D-02
    1.460000   -1.2542882164881D-01  2.775D-02
    1.465000   -1.2407152359242D-01  2.744D-02
    1.470000   -1.2272880170228D-01  2.714D-02
    1.475000   -1.2140061367519D-01  2.684D-02
    1.480000   -1.2008691335812D-01  2.654D-02
    1.485000   -1.1878765083055D-01  2.623D-02
    1.490000   -1.1750277248821D-01  2.593D-02
    1.495000   -1.1623222112831D-01  2.564D-02
    1.500000   -1.1497593603596D-01  2.534D-02
    1.505000   -1.1373385307196D-01  2.504D-02
    1.510000   -1.1250590476153D-01  2.475D-02
    1.515000   -1.1129202038419D-01  2.445D-02
    1.520000   -1.1009212606459D-01  2.416D-02
    1.525000   -1.0890614486413D-01  2.387D-02
    1.530000   -1.0773399687338D-01  2.357D-02
    1.535000   -1.0657559930517D-01  2.328D-02
    1.540000   -1.0543086658828D-01  2.300D-02
    1.545000   -1.0429971046158D-01  2.271D-02
    1.550000   -1.0318204006860D-01  2.242D-02
    1.555000   -1.0207776205244D-01  2.214D-02
    1.560000   -1.0098678065083D-01  2.186D-02
    1.565000   -9.9908997791384D-02  2.157D-02
    1.570000   -9.8844313186920D-02  2.130D-02
    1.575000   -9.7792624430655D-02  2.102D-02
    1.580000   -9.6753827091349D-02  2.074D-02
    1.585000   -9.5727814808219D-02  2.046D-02
    1.590000   -9.4714479385544D-02  2.019D-02
    1.595000   -9.3713710886891D-02  1.992D-02
    1.600000   -9.2725397728908D-02  1.965D-02
    1.605000   -9.1749426774550D-02  1.938D-02
    1.610000   -9.0785683425676D-02  1.911D-02
    1.615000   -8.9834051714993D-02  1.885D-02
    1.620000   -8.8894414397190D-02  1.859D-02
    1.625000   -8.7966653039232D-02  1.832D-02
    1.630000   -8.7050648109745D-02  1.807D-02
    1.635000   -8.6146279067419D-02  1.781D-02
    1.640000   -8.5253424448317D-02  1.755D-02
    1.645000   -8.4371961952112D-02  1.730D-02
    1.650000   -8.3501768527104D-02  1.705D-02
    1.655000   -8.2642720453983D-02  1.680D-02
    1.660000   -8.1794693428314D-02  1.655D-02
    1.665000   -8.0957562641622D-02  1.630D-02
    1.670000   -8.0131202861075D-02  1.606D-02
    1.675000   -7.9315488507682D-02  1.581D-02
    1.680000   -7.8510293732976D-02  1.557D-02
    1.685000   -7.7715492494114D-02  1.534D-02
    1.690000   -7.6930958627355D-02  1.510D-02
    1.695000   -7.6156565919892D-02  1.487D-02
    1.700000   -7.5392188179974D-02  1.463D-02
    1.705000   -7.4637699305274D-02  1.441D-02
    1.710000   -7.3892973349513D-02  1.418D-02
    1.715000   -7.3157884587247D-02  1.395D-02
    1.720000   -7.2432307576825D-02  1.373D-02
    1.725000   -7.1716117221496D-02  1.351D-02
    1.730000   -7.1009188828610D-02  1.329D-02
    1.735000   -7.0311398166913D-02  1.307D-02
    1.740000   -6.9622621521918D-02  1.286D-02
    1.745000   -6.8942735749320D-02  1.264D-02
    1.750000   -6.8271618326453D-02  1.243D-02
    1.755000   -6.7609147401784D-02  1.223D-02
    1.760000   -6.6955201842406D-02  1.202D-02
    1.765000   -6.6309661279572D-02  1.182D-02
    1.770000   -6.5672406152206D-02  1.161D-02
    1.775000   -6.5043317748455D-02  1.141D-02
    1.780000   -6.4422278245229D-02  1.122D-02
    1.785000   -6.3809170745766D-02  1.102D-02
    1.790000   -6.3203879315210D-02  1.083D-02
    1.795000   -6.2606289014229D-02  1.064D-02
    1.800000   -6.2016285930663D-02  1.045D-02
    1.805000   -6.1433757209236D-02  1.026D-02
    1.810000   -6.0858591079330D-02  1.008D-02
    1.815000   -6.0290676880853D-02  9.899D-03
    1.820000   -5.9729905088215D-02  9.719D-03
    1.825000   -5.9176167332425D-02  9.542D-03
    1.830000   -5.8629356421352D-02  9.367D-03
    1.835000   -5.8089366358174D-02  9.194D-03
    1.840000   -5.7556092358008D-02  9.023D-03
    1.845000   -5.7029430862810D-02  8.855D-03
    1.850000   -5.6509279554519D-02  8.689D-03
    1.855000   -5.5995537366527D-02  8.524D-03
    1.860000   -5.5488104493464D-02  8.362D-03
    1.865000   -5.4986882399367D-02  8.203D-03
    1.870000   -5.4491773824274D-02  8.045D-03
    1.875000   -5.4002682789235D-02  7.890D-03
    1.880000   -5.3519514599849D-02  7.736D-03
    1.885000   -5.3042175848308D-02  7.585D-03
    1.890000   -5.2570574414027D-02  7.436D-03
    1.895000   -5.2104619462895D-02  7.289D-03
    1.900000   -5.1644221445172D-02  7.144D-03
    1.905000   -5.1189292092110D-02  7.001D-03
    1.910000   -5.0739744411327D-02  6.861D-03
    1.915000   -5.0295492680966D-02  6.722D-03
    1.920000   -4.9856452442719D-02  6.585D-03
    1.925000   -4.9422540493734D-02  6.451D-03
    1.930000   -4.8993674877476D-02  6.318D-03
    1.935000   -4.8569774873568D-02  6.188D-03
    1.940000   -4.8150760986685D-02  6.059D-03
    1.945000   -4.7736554934522D-02  5.933D-03
    1.950000   -4.7327079634919D-02  5.808D-03
    1.955000   -4.6922259192161D-02  5.686D-03
    1.960000   -4.6522018882515D-02  5.565D-03
    1.965000   -4.6126285139052D-02  5.446D-03
    1.970000   -4.5734985535816D-02  5.329D-03
    1.975000   -4.5348048771347D-02  5.215D-03
    1.980000   -4.4965404651661D-02  5.102D-03
    1.985000   -4.4586984072688D-02  4.990D-03
    1.990000   -4.4212719002247D-02  4.881D-03
    1.995000   -4.3842542461577D-02  4.774D-03
    2.000000   -4.3476388506490D-02  4.668D-03
    2.005000   -4.3114192208189D-02  4.564D-03
    2.010000   -4.2755889633779D-02  4.462D-03
    2.015000   -4.2401417826531D-02  4.362D-03
    2.020000   -4.2050714785939D-02  4.263D-03
    2.025000   -4.1703719447591D-02  4.166D-03
    2.030000   -4.1360371662939D-02  4.071D-03
    2.035000   -4.1020612178951D-02  3.977D-03
    2.040000   -4.0684382617722D-02  3.886D-03
    2.045000   -4.0351625456080D-02  3.796D-03
    2.050000   -4.0022284005199D-02  3.707D-03
    2.055000   -3.9696302390274D-02  3.620D-03
    2.060000   -3.9373625530279D-02  3.535D-03
    2.065000   -3.9054199117856D-02  3.451D-03
    2.070000   -3.8737969599356D-02  3.369D-03
    2.075000   -3.8424884155046D-02  3.288D-03
    2.080000   -3.8114890679544D-02  3.209D-03
    2.085000   -3.7807937762478D-02  3.132D-03
    2.090000   -3.7503974669417D-02  3.056D-03
    2.095000   -3.7202951323078D-02  2.981D-03
    2.100000   -3.6904818284841D-02  2.908D-03
    2.105000   -3.6609526736613D-02  2.836D-03
    2.110000   -3.6317028463011D-02  2.766D-03
    2.115000   -3.6027275833933D-02  2.697D-03
    2.120000   -3.5740221787511D-02  2.629D-03
    2.125000   -3.5455819813461D-02  2.563D-03
    2.130000   -3.5174023936841D-02  2.498D-03
    2.135000   -3.4894788702252D-02  2.435D-03
    2.140000   -3.4618069158462D-02  2.373D-03
    2.145000   -3.4343820843482D-02  2.312D-03
    2.150000   -3.4071999770108D-02  2.252D-03
    2.155000   -3.3802562411908D-02  2.194D-03
    2.160000   -3.3535465689705D-02  2.137D-03
    2.165000   -3.3270666958509D-02  2.081D-03
    2.170000   -3.3008123994944D-02  2.026D-03
    2.175000   -3.2747794985146D-02  1.972D-03
    2.180000   -3.2489638513155D-02  1.920D-03
    2.185000   -3.2233613549772D-02  1.868D-03
    2.190000   -3.1979679441908D-02  1.818D-03
    2.195000   -3.1727795902406D-02  1.769D-03
    2.200000   -3.1477923000341D-02  1.721D-03
    2.205000   -3.1230021151781D-02  1.674D-03
    2.210000   -3.0984051111028D-02  1.628D-03
    2.215000   -3.0739973962303D-02  1.583D-03
    2.220000   -3.0497751111886D-02  1.540D-03
    2.225000   -3.0257344280702D-02  1.497D-03
    2.230000   -3.0018715497342D-02  1.455D-03
    2.235000   -2.9781827091498D-02  1.414D-03
    2.240000   -2.9546641687827D-02  1.374D-03
    2.245000   -2.9313122200205D-02  1.335D-03
    2.250000   -2.9081231826381D-02  1.297D-03
    2.255000   -2.8850934043002D-02  1.260D-03
    2.260000   -2.8622192601013D-02  1.224D-03
    2.265000   -2.8394971521402D-02  1.188D-03
    2.270000   -2.8169235091287D-02  1.154D-03
    2.275000   -2.7944947860331D-02  1.120D-03
    2.280000   -2.7722074637464D-02  1.087D-03
    2.285000   -2.7500580487900D-02  1.055D-03
    2.290000   -2.7280430730436D-02  1.024D-03
    2.295000   -2.7061590935020D-02  9.932D-04
    2.300000   -2.6844026920560D-02  9.634D-04
    2.305000   -2.6627704752980D-02  9.344D-04
    2.310000   -2.6412590743484D-02  9.062D-04
    2.315000   -2.6198651447026D-02  8.787D-04
    2.320000   -2.5985853660974D-02  8.518D-04
    2.325000   -2.5774164423936D-02  8.257D-04
    2.330000   -2.5563551014755D-02  8.002D-04
    2.335000   -2.5353980951623D-02  7.754D-04
    2.340000   -2.5145421991355D-02  7.513D-04
    2.345000   -2.4937842128743D-02  7.278D-04
    2.350000   -2.4731209596015D-02  7.049D-04
    2.355000   -2.4525492862387D-02  6.827D-04
    2.360000   -2.4320660633668D-02  6.610D-04
    2.365000   -2.4116681851924D-02  6.399D-04
    2.370000   -2.3913525695182D-02  6.194D-04
    2.375000   -2.3711161577160D-02  5.995D-04
    2.380000   -2.3509559147012D-02  5.801D-04
    2.385000   -2.3308688289068D-02  5.613D-04
    2.390000   -2.3108519122575D-02  5.430D-04
    2.395000   -2.2909022001404D-02  5.252D-04
    2.400000   -2.2710167513732D-02  5.079D-04
    2.405000   -2.2511926481677D-02  4.911D-04
    2.410000   -2.2314269960880D-02  4.747D-04
    2.415000   -2.2117169240024D-02  4.589D-04
    2.420000   -2.1920595840283D-02  4.435D-04
    2.425000   -2.1724521514688D-02  4.285D-04
    2.430000   -2.1528918247406D-02  4.140D-04
    2.435000   -2.1333758252927D-02  3.999D-04
    2.440000   -2.1139013975146D-02  3.863D-04
    2.445000   -2.0944658086334D-02  3.730D-04
    2.450000   -2.0750663486007D-02  3.601D-04
    2.455000   -2.0557003299665D-02  3.477D-04
    2.460000   -2.0363650877417D-02  3.356D-04
    2.465000   -2.0170579792468D-02  3.238D-04
    2.470000   -1.9977763839499D-02  3.125D-04
    2.475000   -1.9785177032891D-02  3.014D-04
    2.480000   -1.9592793604826D-02  2.908D-04
    2.485000   -1.9400588003257D-02  2.804D-04
    2.490000   -1.9208534889734D-02  2.704D-04
    2.495000   -1.9016609137097D-02  2.607D-04
    2.500000   -1.8824785827034D-02  2.513D-04
    2.505000   -1.8633040247496D-02  2.422D-04
    2.510000   -1.8441347889984D-02  2.333D-04
    2.515000   -1.8249684446707D-02  2.248D-04
    2.520000   -1.8058025807597D-02  2.166D-04
    2.525000   -1.7866348057201D-02  2.086D-04
    2.530000   -1.7674627471453D-02  2.008D-04
    2.535000   -1.7482840514315D-02  1.934D-04
    2.540000   -1.7290963834305D-02  1.861D-04
    2.545000   -1.7098974260910D-02  1.791D-04
    2.550000   -1.6906848800887D-02  1.724D-04
    2.555000   -1.6714564634460D-02  1.658D-04
    2.560000   -1.6522099111419D-02  1.595D-04
    2.565000   -1.6329429747121D-02  1.534D-04
    2.570000   -1.6136534218409D-02  1.475D-04
    2.575000   -1.5943390359434D-02  1.418D-04
    2.580000   -1.5749976157422D-02  1.363D-04
    2.585000   -1.5556269748348D-02  1.310D-04
    2.590000   -1.5362249412562D-02  1.259D-04
    2.595000   -1.5167893570350D-02  1.209D-04
    2.600000   -1.4973180777450D-02  1.161D-04
    2.605000   -1.4778089720519D-02  1.115D-04
    2.610000   -1.4582599212568D-02  1.070D-04
    2.615000   -1.4386688188366D-02  1.027D-04
    2.620000   -1.4190335699822D-02  9.859D-05
    2.625000   -1.3993520911355D-02  9.459D-05
    2.630000   -1.3796223095248D-02  9.072D-05
    2.635000   -1.3598421627014D-02  8.700D-05
    2.640000   -1.3400095980757D-02  8.340D-05
    2.645000   -1.3201225724556D-02  7.994D-05
    2.650000   -1.3001790515858D-02  7.660D-05
    2.655000   -1.2801770096916D-02  7.338D-05
    2.660000   -1.2601144290242D-02  7.027D-05
    2.665000   -1.2399892994116D-02  6.728D-05
    2.670000   -1.2197996178137D-02  6.440D-05
    2.675000   -1.1995433878825D-02  6.162D-05
    2.680000   -1.1792186195289D-02  5.895D-05
    2.685000   -1.1588233284959D-02  5.637D-05
    2.690000   -1.1383555359390D-02  5.389D-05
    2.695000   -1.1178132680145D-02  5.150D-05
    2.700000   -1.0971945554755D-02  4.920D-05
    2.705000   -1.0764974332779D-02  4.699D-05
    2.710000   -1.0557199401949D-02  4.486D-05
    2.715000   -1.0348601184412D-02  4.281D-05
    2.720000   -1.0139160133080D-02  4.084D-05
    2.725000   -9.9288567280840D-03  3.894D-05
    2.730000   -9.7176714733385D-03  3.712D-05
    2.735000   -9.5055848932173D-03  3.537D-05
    2.740000   -9.2925775293533D-03  3.368D-05
    2.745000   -9.0786299375500D-03  3.206D-05
    2.750000   -8.8637226848287D-03  3.051D-05
    2.755000   -8.6478363465849D-03  2.901D-05
    2.760000   -8.4309515038852D-03  2.758D-05
    2.765000   -8.2130487408937D-03  2.620D-05
    2.770000   -7.9941086424181D-03  2.488D-05
    2.775000   -7.7741117916021D-03  2.361D-05
    2.780000   -7.5530387677432D-03  2.239D-05
    2.785000   -7.3308701442470D-03  2.123D-05
    2.790000   -7.1075864867157D-03  2.011D-05
    2.795000   -6.8831683511713D-03  1.904D-05
    2.800000   -6.6575962824158D-03  1.802D-05
    2.805000   -6.4308508125200D-03  1.704D-05
    2.810000   -6.2029124594530D-03  1.611D-05
    2.815000   -5.9737617258373D-03  1.521D-05
    2.820000   -5.7433790978416D-03  1.436D-05
    2.825000   -5.5117450441979D-03  1.354D-05
    2.830000   -5.2788400153523D-03  1.277D-05
    2.835000   -5.0446444427366D-03  1.203D-05
    2.840000   -4.8091387381693D-03  1.132D-05
    2.845000   -4.5723032933753D-03  1.065D-05
    2.850000   -4.3341184796248D-03  1.002D-05
    2.855000   -4.0945646474945D-03  9.418D-06
    2.860000   -3.8536221267313D-03  8.849D-06
    2.865000   -3.6112712262403D-03  8.312D-06
    2.870000   -3.3674922341695D-03  7.806D-06
    2.875000   -3.1222654181032D-03  7.330D-06
    2.880000   -2.8755710253573D-03  6.884D-06
    2.885000   -2.6273892833689D-03  6.468D-06
    2.890000   -2.3777004001799D-03  6.080D-06
    2.895000   -2.1264845650101D-03  5.721D-06
    2.900000   -1.8737219489143D-03  5.389D-06
    2.905000   -1.6193927055270D-03  5.085D-06
    2.910000   -1.3634769718746D-03  4.808D-06
    2.915000   -1.1059548692676D-03  4.557D-06
    2.920000   -8.4680650426083D-04  4.331D-06
    2.925000   -5.8601196967656D-04  4.131D-06
    2.930000   -3.2355134569062D-04  3.955D-06
    2.935000   -5.9404700970433D-05  3.801D-06
    2.940000    2.0644790613034D-04  3.670D-06
    2.945000    4.7402642632888D-04  3.558D-06
    2.950000    7.4335081813615D-04  3.466D-06
    2.955000    1.0144410465261D-03  3.390D-06
    2.960000    1.2873170815824D-03  3.330D-06
    2.965000    1.5619988971094D-03  3.284D-06
    2.970000    1.8385064692119D-03  3.249D-06
    2.975000    2.1168597748619D-03  3.224D-06
    2.980000    2.3970787904359D-03  3.207D-06
    2.985000    2.6791834902467D-03  3.198D-06
    2.990000    2.9631938450574D-03  3.194D-06
    2.995000    3.2491298205883D-03  3.194D-06
    3.000000    3.5370113760244D-03  3.197D-06
    3.005000    3.8268584625162D-03  3.202D-06
    3.010000    4.1186910216869D-03  3.209D-06
    3.015000    4.4125289841489D-03  3.217D-06
    3.020000    4.7083922680186D-03  3.224D-06
    3.025000    5.0063007774547D-03  3.232D-06
    3.030000    5.3062744012063D-03  3.238D-06
    3.035000    5.6083330111758D-03  3.244D-06
    3.040000    5.9124964610093D-03  3.248D-06
    3.045000    6.2187845847010D-03  3.251D-06
    3.050000    6.5272171952322D-03  3.252D-06
    3.055000    6.8378140832224D-03  3.252D-06
    3.060000    7.1505950156284D-03  3.250D-06
    3.065000    7.4655797344573D-03  3.247D-06
    3.070000    7.7827879555210D-03  3.242D-06
    3.075000    8.1022393672209D-03  3.235D-06
    3.080000    8.4239536293690D-03  3.227D-06
    3.085000    8.7479503720469D-03  3.217D-06
    3.090000    9.0742491944952D-03  3.205D-06
    3.095000    9.4028696640504D-03  3.192D-06
    3.100000    9.7338313151166D-03  3.178D-06
    3.105000    1.0067153648173D-02  3.163D-06
    3.110000    1.0402856128827D-02  3.147D-06
    3.115000    1.0740958186908D-02  3.129D-06
    3.120000    1.1081479215594D-02  3.111D-06
    3.125000    1.1424438570586D-02  3.091D-06
    3.130000    1.1769855569323D-02  3.071D-06
    3.135000    1.2117749490230D-02  3.051D-06
    3.140000    1.2468139572014D-02  3.029D-06
    3.145000    1.2821045012991D-02  3.007D-06
    3.150000    1.3176484970462D-02  2.985D-06
    3.155000    1.3534478560116D-02  2.962D-06
    3.160000    1.3895044855475D-02  2.939D-06
    3.165000    1.4258202887379D-02  2.916D-06
    3.170000    1.4623971643496D-02  2.893D-06
    3.175000    1.4992370067878D-02  2.869D-06
    3.180000    1.5363417060539D-02  2.846D-06
    3.185000    1.5737131477070D-02  2.822D-06
    3.190000    1.6113532128283D-02  2.799D-06
    3.195000    1.6492637779887D-02  2.775D-06
    3.200000    1.6874467152180D-02  2.752D-06
    3.205000    1.7259038919780D-02  2.729D-06
    3.210000    1.7646371711370D-02  2.706D-06
    3.215000    1.8036484109472D-02  2.683D-06
    3.220000    1.8429394650235D-02  2.661D-06
    3.225000    1.8825121823247D-02  2.638D-06
    3.230000    1.9223684071359D-02  2.616D-06
    3.235000    1.9625099790528D-02  2.595D-06
    3.240000    2.0029387329673D-02  2.574D-06
    3.245000    2.0436564990535D-02  2.553D-06
    3.250000    2.0846651027559D-02  2.532D-06
    3.255000    2.1259663647773D-02  2.512D-06
    3.260000    2.1675621010676D-02  2.492D-06