
variables = "r", "UA(r)", "Uncertainty"
zone T = "State 1 UA(r)  77N16p6q3Rf4_40C3ReD"

    1.350000    9.3298165247806D-01  1.617D-01
    1.355000    9.3157945497471D-01  1.616D-01
    1.360000    9.3015398344270D-01  1.615D-01
    1.365000    9.2870500281402D-01  1.613D-01
    1.370000    9.2723227913267D-01  1.612D-01
    1.375000    9.2573557966486D-01  1.611D-01
    1.380000    9.2421467301140D-01  1.610D-01
    1.385000    9.2266932922236D-01  1.608D-01
    1.390000    9.2109931991405D-01  1.607D-01
    1.395000    9.1950441838826D-01  1.606D-01
    1.400000    9.1788439975366D-01  1.604D-01
    1.405000    9.1623904104963D-01  1.603D-01
    1.410000    9.1456812137211D-01  1.601D-01
    1.415000    9.1287142200181D-01  1.600D-01
    1.420000    9.1114872653458D-01  1.598D-01
    1.425000    9.0939982101394D-01  1.597D-01
    1.430000    9.0762449406574D-01  1.595D-01
    1.435000    9.0582253703504D-01  1.594D-01
    1.440000    9.0399374412498D-01  1.592D-01
    1.445000    9.0213791253779D-01  1.591D-01
    1.450000    9.0025484261780D-01  1.589D-01
    1.455000    8.9834433799650D-01  1.587D-01
    1.460000    8.9640620573948D-01  1.586D-01
    1.465000    8.9444025649533D-01  1.584D-01
    1.470000    8.9244630464644D-01  1.582D-01
    1.475000    8.9042416846157D-01  1.581D-01
    1.480000    8.8837367025020D-01  1.579D-01
    1.485000    8.8629463651865D-01  1.577D-01
    1.490000    8.8418689812774D-01  1.575D-01
    1.495000    8.8205029045220D-01  1.573D-01
    1.500000    8.7988465354145D-01  1.571D-01
    1.505000    8.7768983228198D-01  1.569D-01
    1.510000    8.7546567656101D-01  1.567D-01
    1.515000    8.7321204143152D-01  1.565D-01
    1.520000    8.7092878727851D-01  1.563D-01
    1.525000    8.6861577998638D-01  1.561D-01
    1.530000    8.6627289110741D-01  1.559D-01
    1.535000    8.6389999803116D-01  1.557D-01
    1.540000    8.6149698415482D-01  1.555D-01
    1.545000    8.5906373905425D-01  1.553D-01
    1.550000    8.5660015865579D-01  1.550D-01
    1.555000    8.5410614540857D-01  1.548D-01
    1.560000    8.5158160845729D-01  1.546D-01
    1.565000    8.4902646381539D-01  1.544D-01
    1.570000    8.4644063453840D-01  1.541D-01
    1.575000    8.4382405089745D-01  1.539D-01
    1.580000    8.4117665055267D-01  1.536D-01
    1.585000    8.3849837872657D-01  1.534D-01
    1.590000    8.3578918837703D-01  1.531D-01
    1.595000    8.3304904036993D-01  1.529D-01
    1.600000    8.3027790365123D-01  1.526D-01
    1.605000    8.2747575541828D-01  1.524D-01
    1.610000    8.2464258129037D-01  1.521D-01
    1.615000    8.2177837547820D-01  1.518D-01
    1.620000    8.1888314095227D-01  1.516D-01
    1.625000    8.1595688960986D-01  1.513D-01
    1.630000    8.1299964244061D-01  1.510D-01
    1.635000    8.1001142969042D-01  1.507D-01
    1.640000    8.0699229102353D-01  1.504D-01
    1.645000    8.0394227568264D-01  1.501D-01
    1.650000    8.0086144264684D-01  1.498D-01
    1.655000    7.9774986078720D-01  1.495D-01
    1.660000    7.9460760901988D-01  1.492D-01
    1.665000    7.9143477645647D-01  1.489D-01
    1.670000    7.8823146255146D-01  1.486D-01
    1.675000    7.8499777724666D-01  1.483D-01
    1.680000    7.8173384111231D-01  1.480D-01
    1.685000    7.7843978548474D-01  1.476D-01
    1.690000    7.7511575260031D-01  1.473D-01
    1.695000    7.7176189572560D-01  1.470D-01
    1.700000    7.6837837928342D-01  1.466D-01
    1.705000    7.6496537897466D-01  1.463D-01
    1.710000    7.6152308189558D-01  1.459D-01
    1.715000    7.5805168665051D-01  1.456D-01
    1.720000    7.5455140345965D-01  1.452D-01
    1.725000    7.5102245426178D-01  1.449D-01
    1.730000    7.4746507281175D-01  1.445D-01
    1.735000    7.4387950477240D-01  1.441D-01
    1.740000    7.4026600780087D-01  1.438D-01
    1.745000    7.3662485162896D-01  1.434D-01
    1.750000    7.3295631813748D-01  1.430D-01
    1.755000    7.2926070142418D-01  1.426D-01
    1.760000    7.2553830786531D-01  1.422D-01
    1.765000    7.2178945617038D-01  1.418D-01
    1.770000    7.1801447743011D-01  1.414D-01
    1.775000    7.1421371515726D-01  1.410D-01
    1.780000    7.1038752532016D-01  1.406D-01
    1.785000    7.0653627636878D-01  1.402D-01
    1.790000    7.0266034925319D-01  1.397D-01
    1.795000    6.9876013743414D-01  1.393D-01
    1.800000    6.9483604688562D-01  1.389D-01
    1.805000    6.9088849608926D-01  1.384D-01
    1.810000    6.8691791602033D-01  1.380D-01
    1.815000    6.8292475012528D-01  1.376D-01
    1.820000    6.7890945429055D-01  1.371D-01
    1.825000    6.7487249680250D-01  1.366D-01
    1.830000    6.7081435829849D-01  1.362D-01
    1.835000    6.6673553170868D-01  1.357D-01
    1.840000    6.6263652218867D-01  1.352D-01
    1.845000    6.5851784704272D-01  1.348D-01
    1.850000    6.5438003563745D-01  1.343D-01
    1.855000    6.5022362930595D-01  1.338D-01
    1.860000    6.4604918124213D-01  1.333D-01
    1.865000    6.4185725638528D-01  1.328D-01
    1.870000    6.3764843129467D-01  1.323D-01
    1.875000    6.3342329401427D-01  1.318D-01
    1.880000    6.2918244392729D-01  1.313D-01
    1.885000    6.2492649160069D-01  1.307D-01
    1.890000    6.2065605861954D-01  1.302D-01
    1.895000    6.1637177741107D-01  1.297D-01
    1.900000    6.1207429105867D-01  1.291D-01
    1.905000    6.0776425310550D-01  1.286D-01
    1.910000    6.0344232734791D-01  1.280D-01
    1.915000    5.9910918761866D-01  1.275D-01
    1.920000    5.9476551755985D-01  1.269D-01
    1.925000    5.9041201038570D-01  1.264D-01
    1.930000    5.8604936863520D-01  1.258D-01
    1.935000    5.8167830391463D-01  1.252D-01
    1.940000    5.7729953663008D-01  1.246D-01
    1.945000    5.7291379571003D-01  1.240D-01
    1.950000    5.6852181831808D-01  1.235D-01
    1.955000    5.6412434955596D-01  1.229D-01
    1.960000    5.5972214215687D-01  1.223D-01
    1.965000    5.5531595616940D-01  1.216D-01
    1.970000    5.5090655863206D-01  1.210D-01
    1.975000    5.4649472323867D-01  1.204D-01
    1.980000    5.4208122999474D-01  1.198D-01
    1.985000    5.3766686486500D-01  1.192D-01
    1.990000    5.3325241941241D-01  1.185D-01
    1.995000    5.2883869042862D-01  1.179D-01
    2.000000    5.2442647955646D-01  1.172D-01
    2.005000    5.2001659290429D-01  1.166D-01
    2.010000    5.1560984065288D-01  1.159D-01
    2.015000    5.1120703665473D-01  1.153D-01
    2.020000    5.0680899802632D-01  1.146D-01
    2.025000    5.0241654473362D-01  1.139D-01
    2.030000    4.9803049917090D-01  1.132D-01
    2.035000    4.9365168573349D-01  1.125D-01
    2.040000    4.8928093038461D-01  1.119D-01
    2.045000    4.8491906021666D-01  1.112D-01
    2.050000    4.8056690300735D-01  1.105D-01
    2.055000    4.7622528677102D-01  1.097D-01
    2.060000    4.7189503930551D-01  1.090D-01
    2.065000    4.6757698773501D-01  1.083D-01
    2.070000    4.6327195804923D-01  1.076D-01
    2.075000    4.5898077463935D-01  1.069D-01
    2.080000    4.5470425983107D-01  1.061D-01
    2.085000    4.5044323341539D-01  1.054D-01
    2.090000    4.4619851217722D-01  1.047D-01
    2.095000    4.4197090942266D-01  1.039D-01
    2.100000    4.3776123450499D-01  1.031D-01
    2.105000    4.3357029235018D-01  1.024D-01
    2.110000    4.2939888298208D-01  1.016D-01
    2.115000    4.2524780104802D-01  1.009D-01
    2.120000    4.2111783534502D-01  1.001D-01
    2.125000    4.1700976834736D-01  9.931D-02
    2.130000    4.1292437573570D-01  9.852D-02
    2.135000    4.0886242592845D-01  9.774D-02
    2.140000    4.0482467961581D-01  9.694D-02
    2.145000    4.0081188929684D-01  9.615D-02
    2.150000    3.9682479882022D-01  9.535D-02
    2.155000    3.9286414292908D-01  9.454D-02
    2.160000    3.8893064681034D-01  9.373D-02
    2.165000    3.8502502564917D-01  9.291D-02
    2.170000    3.8114798418890D-01  9.210D-02
    2.175000    3.7730021629699D-01  9.127D-02
    2.180000    3.7348240453733D-01  9.044D-02
    2.185000    3.6969521974961D-01  8.961D-02
    2.190000    3.6593932063595D-01  8.878D-02
    2.195000    3.6221535335538D-01  8.794D-02
    2.200000    3.5852395112661D-01  8.709D-02
    2.205000    3.5486573383949D-01  8.625D-02
    2.210000    3.5124130767558D-01  8.539D-02
    2.215000    3.4765126473832D-01  8.454D-02
    2.220000    3.4409618269307D-01  8.368D-02
    2.225000    3.4057662441759D-01  8.282D-02
    2.230000    3.3709313766322D-01  8.195D-02
    2.235000    3.3364625472718D-01  8.108D-02
    2.240000    3.3023649213634D-01  8.021D-02
    2.245000    3.2686435034287D-01  7.933D-02
    2.250000    3.2353031343194D-01  7.846D-02
    2.255000    3.2023484884204D-01  7.757D-02
    2.260000    3.1697840709799D-01  7.669D-02
    2.265000    3.1376142155710D-01  7.580D-02
    2.270000    3.1058430816865D-01  7.491D-02
    2.275000    3.0744746524696D-01  7.402D-02
    2.280000    3.0435127325843D-01  7.312D-02
    2.285000    3.0129609462252D-01  7.222D-02
    2.290000    2.9828227352715D-01  7.132D-02
    2.295000    2.9531013575851D-01  7.042D-02
    2.300000    2.9237998854555D-01  6.952D-02
    2.305000    2.8949212041927D-01  6.861D-02
    2.310000    2.8664680108698D-01  6.770D-02
    2.315000    2.8384428132159D-01  6.679D-02
    2.320000    2.8108479286605D-01  6.588D-02
    2.325000    2.7836854835310D-01  6.496D-02
    2.330000    2.7569574124018D-01  6.405D-02
    2.335000    2.7306654575982D-01  6.313D-02
    2.340000    2.7048111688526D-01  6.221D-02
    2.345000    2.6793959031150D-01  6.129D-02
    2.350000    2.6544208245165D-01  6.037D-02
    2.355000    2.6298869044855D-01  5.945D-02
    2.360000    2.6057949220169D-01  5.853D-02
    2.365000    2.5821454640923D-01  5.761D-02
    2.370000    2.5589389262510D-01  5.669D-02
    2.375000    2.5361755133104D-01  5.576D-02
    2.380000    2.5138552402349D-01  5.484D-02
    2.385000    2.4919779331511D-01  5.391D-02
    2.390000    2.4705432305078D-01  5.299D-02
    2.395000    2.4495505843793D-01  5.206D-02
    2.400000    2.4289992619099D-01  5.114D-02
    2.405000    2.4088883468967D-01  5.022D-02
    2.410000    2.3892167415097D-01  4.929D-02
    2.415000    2.3699831681447D-01  4.837D-02
    2.420000    2.3511861714082D-01  4.745D-02
    2.425000    2.3328241202309D-01  4.653D-02
    2.430000    2.3148952101058D-01  4.561D-02
    2.435000    2.2973974654495D-01  4.469D-02
    2.440000    2.2803287420820D-01  4.377D-02
    2.445000    2.2636867298224D-01  4.285D-02
    2.450000    2.2474689551968D-01  4.194D-02
    2.455000    2.2316727842552D-01  4.103D-02
    2.460000    2.2162954254925D-01  4.011D-02
    2.465000    2.2013339328712D-01  3.920D-02
    2.470000    2.1867852089414D-01  3.830D-02
    2.475000    2.1726460080535D-01  3.739D-02
    2.480000    2.1589129396603D-01  3.649D-02
    2.485000    2.1455824717042D-01  3.558D-02
    2.490000    2.1326509340852D-01  3.469D-02
    2.495000    2.1201145222048D-01  3.379D-02
    2.500000    2.1079693005830D-01  3.290D-02
    2.505000    2.0962112065426D-01  3.201D-02
    2.510000    2.0848360539568D-01  3.112D-02
    2.515000    2.0738395370562D-01  3.024D-02
    2.520000    2.0632172342903D-01  2.936D-02
    2.525000    2.0529646122385D-01  2.848D-02
    2.530000    2.0430770295672D-01  2.761D-02
    2.535000    2.0335497410283D-01  2.674D-02
    2.540000    2.0243779014932D-01  2.587D-02
    2.545000    2.0155565700204D-01  2.501D-02
    2.550000    2.0070807139495D-01  2.415D-02
    2.555000    1.9989452130192D-01  2.330D-02
    2.560000    1.9911448635043D-01  2.245D-02
    2.565000    1.9836743823668D-01  2.161D-02
    2.570000    1.9765284114170D-01  2.077D-02
    2.575000    1.9697015214815D-01  1.994D-02
    2.580000    1.9631882165721D-01  1.911D-02
    2.585000    1.9569829380525D-01  1.829D-02
    2.590000    1.9510800687985D-01  1.748D-02
    2.595000    1.9454739373478D-01  1.667D-02
    2.600000    1.9401588220351D-01  1.587D-02
    2.605000    1.9351289551092D-01  1.507D-02
    2.610000    1.9303785268276D-01  1.428D-02
    2.615000    1.9259016895252D-01  1.350D-02
    2.620000    1.9216925616546D-01  1.273D-02
    2.625000    1.9177452317919D-01  1.197D-02
    2.630000    1.9140537626077D-01  1.122D-02
    2.635000    1.9106121947971D-01  1.048D-02
    2.640000    1.9074145509683D-01  9.748D-03
    2.645000    1.9044548394841D-01  9.034D-03
    2.650000    1.9017270582549D-01  8.336D-03
    2.655000    1.8992251984802D-01  7.657D-03
    2.660000    1.8969432483352D-01  7.001D-03
    2.665000    1.8948751966005D-01  6.373D-03
    2.670000    1.8930150362320D-01  5.779D-03
    2.675000    1.8913567678685D-01  5.230D-03
    2.680000    1.8898944032757D-01  4.737D-03
    2.685000    1.8886219687223D-01  4.317D-03
    2.690000    1.8875335082894D-01  3.989D-03
    2.695000    1.8866230871074D-01  3.775D-03
    2.700000    1.8858847945224D-01  3.690D-03
    2.705000    1.8853127471874D-01  3.740D-03
    2.710000    1.8849010920788D-01  3.915D-03
    2.715000    1.8846440094354D-01  4.198D-03
    2.720000    1.8845357156193D-01  4.564D-03
    2.725000    1.8845704658978D-01  4.994D-03
    2.730000    1.8847425571445D-01  5.469D-03
    2.735000    1.8850463304583D-01  5.976D-03
    2.740000    1.8854761737016D-01  6.507D-03
    2.745000    1.8860265239537D-01  7.053D-03
    2.750000    1.8866918698822D-01  7.609D-03
    2.755000    1.8874667540289D-01  8.173D-03
    2.760000    1.8883457750123D-01  8.740D-03
    2.765000    1.8893235896444D-01  9.309D-03
    2.770000    1.8903949149631D-01  9.878D-03
    2.775000    1.8915545301793D-01  1.045D-02
    2.780000    1.8927972785388D-01  1.101D-02
    2.785000    1.8941180690995D-01  1.157D-02
    2.790000    1.8955118784240D-01  1.213D-02
    2.795000    1.8969737521872D-01  1.269D-02
    2.800000    1.8984988067004D-01  1.324D-02
    2.805000    1.9000822303520D-01  1.378D-02
    2.810000    1.9017192849644D-01  1.432D-02
    2.815000    1.9034053070695D-01  1.486D-02
    2.820000    1.9051357091018D-01  1.539D-02
    2.825000    1.9069059805113D-01  1.591D-02
    2.830000    1.9087116887959D-01  1.643D-02
    2.835000    1.9105484804552D-01  1.694D-02
    2.840000    1.9124120818660D-01  1.744D-02
    2.845000    1.9142983000808D-01  1.794D-02
    2.850000    1.9162030235504D-01  1.843D-02
    2.855000    1.9181222227724D-01  1.892D-02
    2.860000    1.9200519508649D-01  1.940D-02
    2.865000    1.9219883440698D-01  1.987D-02
    2.870000    1.9239276221835D-01  2.033D-02
    2.875000    1.9258660889191D-01  2.079D-02
    2.880000    1.9278001322003D-01  2.124D-02
    2.885000    1.9297262243883D-01  2.169D-02
    2.890000    1.9316409224438D-01  2.213D-02
    2.895000    1.9335408680252D-01  2.256D-02
    2.900000    1.9354227875246D-01  2.298D-02
    2.905000    1.9372834920432D-01  2.340D-02
    2.910000    1.9391198773075D-01  2.381D-02
    2.915000    1.9409289235283D-01  2.421D-02
    2.920000    1.9427076952035D-01  2.461D-02
    2.925000    1.9444533408671D-01  2.500D-02
    2.930000    1.9461630927854D-01  2.539D-02
    2.935000    1.9478342666021D-01  2.576D-02
    2.940000    1.9494642609347D-01  2.613D-02
    2.945000    1.9510505569223D-01  2.650D-02
    2.950000    1.9525907177285D-01  2.685D-02
    2.955000    1.9540823879993D-01  2.720D-02
    2.960000    1.9555232932788D-01  2.754D-02
    2.965000    1.9569112393834D-01  2.788D-02
    2.970000    1.9582441117372D-01  2.821D-02
    2.975000    1.9595198746695D-01  2.853D-02
    2.980000    1.9607365706760D-01  2.885D-02
    2.985000    1.9618923196461D-01  2.916D-02
    2.990000    1.9629853180567D-01  2.946D-02
    2.995000    1.9640138381353D-01  2.976D-02
    3.000000    1.9649762269929D-01  3.005D-02
    3.005000    1.9658709057297D-01  3.034D-02
    3.010000    1.9666963685131D-01  3.061D-02
    3.015000    1.9674511816310D-01  3.089D-02
    3.020000    1.9681339825226D-01  3.115D-02
    3.025000    1.9687434787850D-01  3.141D-02
    3.030000    1.9692784471613D-01  3.166D-02
    3.035000    1.9697377325082D-01  3.191D-02
    3.040000    1.9701202467459D-01  3.215D-02
    3.045000    1.9704249677922D-01  3.238D-02
    3.050000    1.9706509384811D-01  3.261D-02
    3.055000    1.9707972654670D-01  3.284D-02
    3.060000    1.9708631181178D-01  3.305D-02
    3.065000    1.9708477273956D-01  3.326D-02
    3.070000    1.9707503847281D-01  3.347D-02
    3.075000    1.9705704408703D-01  3.367D-02
    3.080000    1.9703073047602D-01  3.386D-02
    3.085000    1.9699604423661D-01  3.405D-02
    3.090000    1.9695293755300D-01  3.423D-02
    3.095000    1.9690136808061D-01  3.441D-02
    3.100000    1.9684129882960D-01  3.458D-02
    3.105000    1.9677269804823D-01  3.474D-02
    3.110000    1.9669553910596D-01  3.491D-02
    3.115000    1.9660980037670D-01  3.506D-02
    3.120000    1.9651546512200D-01  3.521D-02
    3.125000    1.9641252137444D-01  3.535D-02
    3.130000    1.9630096182121D-01  3.549D-02
    3.135000    1.9618078368811D-01  3.563D-02
    3.140000    1.9605198862386D-01  3.576D-02
    3.145000    1.9591458258494D-01  3.588D-02
    3.150000    1.9576857572094D-01  3.600D-02
    3.155000    1.9561398226057D-01  3.612D-02
    3.160000    1.9545082039840D-01  3.623D-02
    3.165000    1.9527911218221D-01  3.633D-02
    3.170000    1.9509888340135D-01  3.643D-02
    3.175000    1.9491016347583D-01  3.653D-02
    3.180000    1.9471298534642D-01  3.662D-02
    3.185000    1.9450738536568D-01  3.670D-02
    3.190000    1.9429340319012D-01  3.679D-02
    3.195000    1.9407108167333D-01  3.686D-02
    3.200000    1.9384046676031D-01  3.694D-02
    3.205000    1.9360160738301D-01  3.700D-02
    3.210000    1.9335455535695D-01  3.707D-02
    3.215000    1.9309936527926D-01  3.713D-02
    3.220000    1.9283609442787D-01  3.719D-02
    3.225000    1.9256480266210D-01  3.724D-02
    3.230000    1.9228555232455D-01  3.729D-02
    3.235000    1.9199840814443D-01  3.733D-02
    3.240000    1.9170343714223D-01  3.737D-02
    3.245000    1.9140070853585D-01  3.741D-02
    3.250000    1.9109029364818D-01  3.744D-02
    3.255000    1.9077226581617D-01  3.747D-02
    3.260000    1.9044670030133D-01  3.749D-02
    3.265000    1.9011367420178D-01  3.751D-02
    3.270000    1.8977326636584D-01  3.753D-02
    3.275000    1.8942555730707D-01  3.755D-02
    3.280000    1.8907062912093D-01  3.756D-02
    3.285000    1.8870856540297D-01  3.757D-02
    3.290000    1.8833945116852D-01  3.757D-02
    3.295000    1.8796337277405D-01  3.757D-02
    3.300000    1.8758041783996D-01  3.757D-02
    3.305000    1.8719067517509D-01  3.756D-02
    3.310000    1.8679423470267D-01  3.755D-02
    3.315000    1.8639118738789D-01  3.754D-02
    3.320000    1.8598162516709D-01  3.753D-02
    3.325000    1.8556564087841D-01  3.751D-02
    3.330000    1.8514332819407D-01  3.749D-02
    3.335000    1.8471478155422D-01  3.747D-02
    3.340000    1.8428009610227D-01  3.744D-02
    3.345000    1.8383936762182D-01  3.741D-02
    3.350000    1.8339269247513D-01  3.738D-02
    3.355000    1.8294016754305D-01  3.734D-02
    3.360000    1.8248189016654D-01  3.731D-02
    3.365000    1.8201795808964D-01  3.727D-02
    3.370000    1.8154846940395D-01  3.722D-02
    3.375000    1.8107352249460D-01  3.718D-02
    3.380000    1.8059321598769D-01  3.713D-02
    3.385000    1.8010764869911D-01  3.708D-02
    3.390000    1.7961691958492D-01  3.703D-02
    3.395000    1.7912112769304D-01  3.697D-02
    3.400000    1.7862037211640D-01  3.692D-02
    3.405000    1.7811475194749D-01  3.686D-02
    3.410000    1.7760436623421D-01  3.680D-02
    3.415000    1.7708931393719D-01  3.674D-02
    3.420000    1.7656969388831D-01  3.667D-02
    3.425000    1.7604560475069D-01  3.660D-02
    3.430000    1.7551714497981D-01  3.653D-02
    3.435000    1.7498441278610D-01  3.646D-02
    3.440000    1.7444750609860D-01  3.639D-02
    3.445000    1.7390652253002D-01  3.631D-02
    3.450000    1.7336155934293D-01  3.624D-02
    3.455000    1.7281271341721D-01  3.616D-02
    3.460000    1.7226008121862D-01  3.608D-02
    3.465000    1.7170375876858D-01  3.600D-02
    3.470000    1.7114384161509D-01  3.591D-02
    3.475000    1.7058042480476D-01  3.583D-02
    3.480000    1.7001360285595D-01  3.574D-02
    3.485000    1.6944346973297D-01  3.565D-02
    3.490000    1.6887011882134D-01  3.556D-02
    3.495000    1.6829364290417D-01  3.547D-02
    3.500000    1.6771413413942D-01  3.538D-02
    3.505000    1.6713168403828D-01  3.528D-02
    3.510000    1.6654638344445D-01  3.519D-02
    3.515000    1.6595832251444D-01  3.509D-02
    3.520000    1.6536759069874D-01  3.499D-02
    3.525000    1.6477427672395D-01  3.489D-02
    3.530000    1.6417846857582D-01  3.479D-02
    3.535000    1.6358025348312D-01  3.469D-02
    3.540000    1.6297971790237D-01  3.459D-02
    3.545000    1.6237694750346D-01  3.449D-02
    3.550000    1.6177202715603D-01  3.438D-02
    3.555000    1.6116504091666D-01  3.427D-02
    3.560000    1.6055607201686D-01  3.417D-02
    3.565000    1.5994520285179D-01  3.406D-02
    3.570000    1.5933251496970D-01  3.395D-02
    3.575000    1.5871808906218D-01  3.384D-02
    3.580000    1.5810200495498D-01  3.373D-02
    3.585000    1.5748434159964D-01  3.362D-02
    3.590000    1.5686517706567D-01  3.350D-02
    3.595000    1.5624458853346D-01  3.339D-02
    3.600000    1.5562265228780D-01  3.328D-02
    3.605000    1.5499944371196D-01  3.316D-02
    3.610000    1.5437503728244D-01  3.304D-02
    3.615000    1.5374950656423D-01  3.293D-02
    3.620000    1.5312292420668D-01  3.281D-02
    3.625000    1.5249536193986D-01  3.269D-02
    3.630000    1.5186689057149D-01  3.257D-02
    3.635000    1.5123757998440D-01  3.245D-02
    3.640000    1.5060749913438D-01  3.233D-02
    3.645000    1.4997671604863D-01  3.221D-02
    3.650000    1.4934529782460D-01  3.209D-02
    3.655000    1.4871331062933D-01  3.197D-02
    3.660000    1.4808081969913D-01  3.185D-02
    3.665000    1.4744788933982D-01  3.173D-02
    3.670000    1.4681458292724D-01  3.160D-02
    3.675000    1.4618096290823D-01  3.148D-02
    3.680000    1.4554709080196D-01  3.136D-02
    3.685000    1.4491302720163D-01  3.123D-02
    3.690000    1.4427883177654D-01  3.111D-02
    3.695000    1.4364456327443D-01  3.098D-02
    3.700000    1.4301027952422D-01  3.086D-02
    3.705000    1.4237603743904D-01  3.073D-02
    3.710000    1.4174189301956D-01  3.061D-02
    3.715000    1.4110790135755D-01  3.048D-02
    3.720000    1.4047411663985D-01  3.035D-02
    3.725000    1.3984059215246D-01  3.023D-02
    3.730000    1.3920738028497D-01  3.010D-02
    3.735000    1.3857453253523D-01  2.997D-02
    3.740000    1.3794209951423D-01  2.985D-02
    3.745000    1.3731013095118D-01  2.972D-02
    3.750000    1.3667867569887D-01  2.959D-02
    3.755000    1.3604778173919D-01  2.946D-02
    3.760000    1.3541749618882D-01  2.934D-02
    3.765000    1.3478786530517D-01  2.921D-02
    3.770000    1.3415893449242D-01  2.908D-02
    3.775000    1.3353074830780D-01  2.895D-02
    3.780000    1.3290335046796D-01  2.883D-02
    3.785000    1.3227678385553D-01  2.870D-02
    3.790000    1.3165109052582D-01  2.857D-02
    3.795000    1.3102631171364D-01  2.844D-02
    3.800000    1.3040248784022D-01  2.831D-02
    3.805000    1.2977965852032D-01  2.819D-02
    3.810000    1.2915786256935D-01  2.806D-02
    3.815000    1.2853713801070D-01  2.793D-02
    3.820000    1.2791752208309D-01  2.780D-02
    3.825000    1.2729905124803D-01  2.767D-02
    3.830000    1.2668176119737D-01  2.755D-02
    3.835000    1.2606568686091D-01  2.742D-02
    3.840000    1.2545086241412D-01  2.729D-02
    3.845000    1.2483732128586D-01  2.716D-02
    3.850000    1.2422509616622D-01  2.704D-02
    3.855000    1.2361421901438D-01  2.691D-02
    3.860000    1.2300472106652D-01  2.678D-02
    3.865000    1.2239663284378D-01  2.665D-02
    3.870000    1.2178998416024D-01  2.653D-02
    3.875000    1.2118480413099D-01  2.640D-02
    3.880000    1.2058112118011D-01  2.627D-02
    3.885000    1.1997896304881D-01  2.615D-02
    3.890000    1.1937835680350D-01  2.602D-02
    3.895000    1.1877932884389D-01  2.590D-02
    3.900000    1.1818190491111D-01  2.577D-02
    3.905000    1.1758611009586D-01  2.565D-02
    3.910000    1.1699196884649D-01  2.552D-02
    3.915000    1.1639950497716D-01  2.540D-02
    3.920000    1.1580874167595D-01  2.527D-02
    3.925000    1.1521970151296D-01  2.515D-02
    3.930000    1.1463240644841D-01  2.502D-02
    3.935000    1.1404687784075D-01  2.490D-02
    3.940000    1.1346313645468D-01  2.478D-02
    3.945000    1.1288120246922D-01  2.465D-02
    3.950000    1.1230109548573D-01  2.453D-02
    3.955000    1.1172283453590D-01  2.441D-02
    3.960000    1.1114643808970D-01  2.428D-02
    3.965000    1.1057192406333D-01  2.416D-02
    3.970000    1.0999930982711D-01  2.404D-02
    3.975000    1.0942861221335D-01  2.392D-02
    3.980000    1.0885984752415D-01  2.380D-02
    3.985000    1.0829303153919D-01  2.368D-02
    3.990000    1.0772817952350D-01  2.356D-02
    3.995000    1.0716530623511D-01  2.344D-02
    4.000000    1.0660442593273D-01  2.332D-02
    4.005000    1.0604555238332D-01  2.320D-02
    4.010000    1.0548869886968D-01  2.308D-02
    4.015000    1.0493387819791D-01  2.296D-02
    4.020000    1.0438110270490D-01  2.284D-02
    4.025000    1.0383038426568D-01  2.272D-02
    4.030000    1.0328173430078D-01  2.261D-02
    4.035000    1.0273516378352D-01  2.249D-02
    4.040000    1.0219068324720D-01  2.237D-02
    4.045000    1.0164830279230D-01  2.226D-02
    4.050000    1.0110803209358D-01  2.214D-02
    4.055000    1.0056988040710D-01  2.203D-02
    4.060000    1.0003385657724D-01  2.191D-02
    4.065000    9.9499969043572D-02  2.180D-02
    4.070000    9.8968225847770D-02  2.168D-02
    4.075000    9.8438634640368D-02  2.157D-02
    4.080000    9.7911202687504D-02  2.145D-02
    4.085000    9.7385936877578D-02  2.134D-02
    4.090000    9.6862843727852D-02  2.123D-02
    4.095000    9.6341929390986D-02  2.112D-02
    4.100000    9.5823199661496D-02  2.100D-02
    4.105000    9.5306659982161D-02  2.089D-02
    4.110000    9.4792315450347D-02  2.078D-02
    4.115000    9.4280170824276D-02  2.067D-02
    4.120000    9.3770230529219D-02  2.056D-02
    4.125000    9.3262498663627D-02  2.045D-02
    4.130000    9.2756979005184D-02  2.034D-02
    4.135000    9.2253675016806D-02  2.023D-02
    4.140000    9.1752589852558D-02  2.013D-02
    4.145000    9.1253726363509D-02  2.002D-02
    4.150000    9.0757087103521D-02  1.991D-02
    4.155000    9.0262674334958D-02  1.980D-02
    4.160000    8.9770490034342D-02  1.970D-02
    4.165000    8.9280535897928D-02  1.959D-02
    4.170000    8.8792813347216D-02  1.949D-02
    4.175000    8.8307323534392D-02  1.938D-02
    4.180000    8.7824067347707D-02  1.928D-02
    4.185000    8.7343045416776D-02  1.917D-02
    4.190000    8.6864258117826D-02  1.907D-02
    4.195000    8.6387705578857D-02  1.896D-02
    4.200000    8.5913387684752D-02  1.886D-02
    4.205000    8.5441304082311D-02  1.876D-02
    4.210000    8.4971454185219D-02  1.866D-02
    4.215000    8.4503837178953D-02  1.856D-02
    4.220000    8.4038452025614D-02  1.845D-02
    4.225000    8.3575297468699D-02  1.835D-02
    4.230000    8.3114372037808D-02  1.825D-02
    4.235000    8.2655674053282D-02  1.815D-02
    4.240000    8.2199201630777D-02  1.805D-02
    4.245000    8.1744952685778D-02  1.796D-02
    4.250000    8.1292924938042D-02  1.786D-02
    4.255000    8.0843115915983D-02  1.776D-02
    4.260000    8.0395522960991D-02  1.766D-02
    4.265000    7.9950143231690D-02  1.757D-02
    4.270000    7.9506973708133D-02  1.747D-02
    4.275000    7.9066011195934D-02  1.737D-02
    4.280000    7.8627252330340D-02  1.728D-02
    4.285000    7.8190693580243D-02  1.718D-02
    4.290000    7.7756331252131D-02  1.709D-02
    4.295000    7.7324161493977D-02  1.699D-02
    4.300000    7.6894180299072D-02  1.690D-02
    4.305000    7.6466383509800D-02  1.681D-02
    4.310000    7.6040766821349D-02  1.671D-02
    4.315000    7.5617325785368D-02  1.662D-02
    4.320000    7.5196055813572D-02  1.653D-02
    4.325000    7.4776952181279D-02  1.644D-02
    4.330000    7.4360010030900D-02  1.635D-02
    4.335000    7.3945224375371D-02  1.626D-02
    4.340000    7.3532590101528D-02  1.617D-02
    4.345000    7.3122101973432D-02  1.608D-02
    4.350000    7.2713754635634D-02  1.599D-02
    4.355000    7.2307542616391D-02  1.590D-02
    4.360000    7.1903460330830D-02  1.581D-02
    4.365000    7.1501502084057D-02  1.572D-02
    4.370000    7.1101662074216D-02  1.564D-02
    4.375000    7.0703934395494D-02  1.555D-02
    4.380000    7.0308313041083D-02  1.546D-02
    4.385000    6.9914791906084D-02  1.538D-02
    4.390000    6.9523364790363D-02  1.529D-02
    4.395000    6.9134025401366D-02  1.521D-02
    4.400000    6.8746767356875D-02  1.512D-02
    4.405000    6.8361584187723D-02  1.504D-02
    4.410000    6.7978469340460D-02  1.495D-02
    4.415000    6.7597416179974D-02  1.487D-02
    4.420000    6.7218417992064D-02  1.479D-02
    4.425000    6.6841467985970D-02  1.471D-02
    4.430000    6.6466559296853D-02  1.462D-02
    4.435000    6.6093684988242D-02  1.454D-02
    4.440000    6.5722838054421D-02  1.446D-02
    4.445000    6.5354011422789D-02  1.438D-02
    4.450000    6.4987197956169D-02  1.430D-02
    4.455000    6.4622390455072D-02  1.422D-02
    4.460000    6.4259581659932D-02  1.414D-02
    4.465000    6.3898764253282D-02  1.406D-02
    4.470000    6.3539930861910D-02  1.398D-02
    4.475000    6.3183074058958D-02  1.390D-02
    4.480000    6.2828186365990D-02  1.383D-02
    4.485000    6.2475260255024D-02  1.375D-02
    4.490000    6.2124288150516D-02  1.367D-02
    4.495000    6.1775262431314D-02  1.360D-02
    4.500000    6.1428175432577D-02  1.352D-02
    4.505000    6.1083019447645D-02  1.344D-02
    4.510000    6.0739786729890D-02  1.337D-02
    4.515000    6.0398469494517D-02  1.329D-02
    4.520000    6.0059059920337D-02  1.322D-02
    4.525000    5.9721550151503D-02  1.315D-02