
variables = "r", "B(r) ", "Uncertainty"
zone T = "State 1 B(r)   77N16p6q3Rf4_40C3ReD"

    0.000000   -6.7840490958193D+00     0.0
    0.005000   -5.1100915764377D-01     0.0
    0.010000   -5.1100891101916D-01     0.0
    0.015000   -5.1100824160953D-01     0.0
    0.020000   -5.1100693802343D-01     0.0
    0.025000   -5.1100478887236D-01     0.0
    0.030000   -5.1100158277375D-01     0.0
    0.035000   -5.1099710835511D-01     0.0
    0.040000   -5.1099115425899D-01     0.0
    0.045000   -5.1098350914917D-01     0.0
    0.050000   -5.1097396171779D-01     0.0
    0.055000   -5.1096230069351D-01     0.0
    0.060000   -5.1094831485082D-01     0.0
    0.065000   -5.1093179302015D-01     0.0
    0.070000   -5.1091252409933D-01     0.0
    0.075000   -5.1089029706578D-01     0.0
    0.080000   -5.1086490098995D-01     0.0
    0.085000   -5.1083612504966D-01     0.0
    0.090000   -5.1080375854552D-01     0.0
    0.095000   -5.1076759091747D-01     0.0
    0.100000   -5.1072741176208D-01     0.0
    0.105000   -5.1068301085117D-01     0.0
    0.110000   -5.1063417815130D-01     0.0
    0.115000   -5.1058070384428D-01     0.0
    0.120000   -5.1052237834875D-01     0.0
    0.125000   -5.1045899234271D-01     0.0
    0.130000   -5.1039033678715D-01     0.0
    0.135000   -5.1031620295052D-01     0.0
    0.140000   -5.1023638243442D-01     0.0
    0.145000   -5.1015066720010D-01     0.0
    0.150000   -5.1005884959609D-01     0.0
    0.155000   -5.0996072238665D-01     0.0
    0.160000   -5.0985607878141D-01     0.0
    0.165000   -5.0974471246582D-01     0.0
    0.170000   -5.0962641763261D-01     0.0
    0.175000   -5.0950098901424D-01     0.0
    0.180000   -5.0936822191636D-01     0.0
    0.185000   -5.0922791225200D-01     0.0
    0.190000   -5.0907985657692D-01     0.0
    0.195000   -5.0892385212587D-01     0.0
    0.200000   -5.0875969684956D-01     0.0
    0.205000   -5.0858718945288D-01     0.0
    0.210000   -5.0840612943361D-01     0.0
    0.215000   -5.0821631712242D-01     0.0
    0.220000   -5.0801755372344D-01     0.0
    0.225000   -5.0780964135595D-01     0.0
    0.230000   -5.0759238309663D-01     0.0
    0.235000   -5.0736558302294D-01     0.0
    0.240000   -5.0712904625713D-01     0.0
    0.245000   -5.0688257901119D-01     0.0
    0.250000   -5.0662598863248D-01     0.0
    0.255000   -5.0635908365024D-01     0.0
    0.260000   -5.0608167382277D-01     0.0
    0.265000   -5.0579357018553D-01     0.0
    0.270000   -5.0549458509974D-01     0.0
    0.275000   -5.0518453230188D-01     0.0
    0.280000   -5.0486322695381D-01     0.0
    0.285000   -5.0453048569360D-01     0.0
    0.290000   -5.0418612668692D-01     0.0
    0.295000   -5.0382996967926D-01     0.0
    0.300000   -5.0346183604855D-01     0.0
    0.305000   -5.0308154885855D-01     0.0
    0.310000   -5.0268893291268D-01     0.0
    0.315000   -5.0228381480847D-01     0.0
    0.320000   -5.0186602299260D-01     0.0
    0.325000   -5.0143538781626D-01     0.0
    0.330000   -5.0099174159114D-01     0.0
    0.335000   -5.0053491864585D-01     0.0
    0.340000   -5.0006475538264D-01     0.0
    0.345000   -4.9958109033477D-01     0.0
    0.350000   -4.9908376422399D-01     0.0
    0.355000   -4.9857262001846D-01     0.0
    0.360000   -4.9804750299105D-01     0.0
    0.365000   -4.9750826077786D-01     0.0
    0.370000   -4.9695474343695D-01     0.0
    0.375000   -4.9638680350736D-01     0.0
    0.380000   -4.9580429606834D-01     0.0
    0.385000   -4.9520707879868D-01     0.0
    0.390000   -4.9459501203612D-01     0.0
    0.395000   -4.9396795883706D-01     0.0
    0.400000   -4.9332578503605D-01     0.0
    0.405000   -4.9266835930552D-01     0.0
    0.410000   -4.9199555321539D-01     0.0
    0.415000   -4.9130724129267D-01     0.0
    0.420000   -4.9060330108099D-01     0.0
    0.425000   -4.8988361319996D-01     0.0
    0.430000   -4.8914806140444D-01     0.0
    0.435000   -4.8839653264353D-01     0.0
    0.440000   -4.8762891711940D-01     0.0
    0.445000   -4.8684510834587D-01     0.0
    0.450000   -4.8604500320653D-01     0.0
    0.455000   -4.8522850201272D-01     0.0
    0.460000   -4.8439550856090D-01     0.0
    0.465000   -4.8354593018980D-01     0.0
    0.470000   -4.8267967783690D-01     0.0
    0.475000   -4.8179666609452D-01     0.0
    0.480000   -4.8089681326537D-01     0.0
    0.485000   -4.7998004141740D-01     0.0
    0.490000   -4.7904627643804D-01     0.0
    0.495000   -4.7809544808783D-01     0.0
    0.500000   -4.7712749005329D-01     0.0
    0.505000   -4.7614233999886D-01     0.0
    0.510000   -4.7513993961839D-01     0.0
    0.515000   -4.7412023468533D-01     0.0
    0.520000   -4.7308317510245D-01     0.0
    0.525000   -4.7202871495023D-01     0.0
    0.530000   -4.7095681253453D-01     0.0
    0.535000   -4.6986743043320D-01     0.0
    0.540000   -4.6876053554139D-01     0.0
    0.545000   -4.6763609911609D-01     0.0
    0.550000   -4.6649409681920D-01     0.0
    0.555000   -4.6533450875958D-01     0.0
    0.560000   -4.6415731953378D-01     0.0
    0.565000   -4.6296251826547D-01     0.0
    0.570000   -4.6175009864360D-01     0.0
    0.575000   -4.6052005895904D-01     0.0
    0.580000   -4.5927240214001D-01     0.0
    0.585000   -4.5800713578584D-01     0.0
    0.590000   -4.5672427219933D-01     0.0
    0.595000   -4.5542382841760D-01     0.0
    0.600000   -4.5410582624122D-01     0.0
    0.605000   -4.5277029226180D-01     0.0
    0.610000   -4.5141725788796D-01     0.0
    0.615000   -4.5004675936943D-01     0.0
    0.620000   -4.4865883781964D-01     0.0
    0.625000   -4.4725353923619D-01     0.0
    0.630000   -4.4583091451985D-01     0.0
    0.635000   -4.4439101949148D-01     0.0
    0.640000   -4.4293391490711D-01     0.0
    0.645000   -4.4145966647106D-01     0.0
    0.650000   -4.3996834484714D-01     0.0
    0.655000   -4.3846002566787D-01     0.0
    0.660000   -4.3693478954152D-01     0.0
    0.665000   -4.3539272205728D-01     0.0
    0.670000   -4.3383391378815D-01     0.0
    0.675000   -4.3225846029189D-01     0.0
    0.680000   -4.3066646210962D-01     0.0
    0.685000   -4.2905802476234D-01     0.0
    0.690000   -4.2743325874530D-01     0.0
    0.695000   -4.2579227951999D-01     0.0
    0.700000   -4.2413520750394D-01     0.0
    0.705000   -4.2246216805830D-01     0.0
    0.710000   -4.2077329147300D-01     0.0
    0.715000   -4.1906871294966D-01     0.0
    0.720000   -4.1734857258214D-01     0.0
    0.725000   -4.1561301533472D-01     0.0
    0.730000   -4.1386219101795D-01     0.0
    0.735000   -4.1209625426200D-01     0.0
    0.740000   -4.1031536448778D-01     0.0
    0.745000   -4.0851968587545D-01     0.0
    0.750000   -4.0670938733069D-01     0.0
    0.755000   -4.0488464244839D-01     0.0
    0.760000   -4.0304562947402D-01     0.0
    0.765000   -4.0119253126246D-01     0.0
    0.770000   -3.9932553523448D-01     0.0
    0.775000   -3.9744483333070D-01     0.0
    0.780000   -3.9555062196313D-01     0.0
    0.785000   -3.9364310196432D-01     0.0
    0.790000   -3.9172247853396D-01     0.0
    0.795000   -3.8978896118319D-01     0.0
    0.800000   -3.8784276367636D-01     0.0
    0.805000   -3.8588410397048D-01     0.0
    0.810000   -3.8391320415222D-01     0.0
    0.815000   -3.8193029037245D-01     0.0
    0.820000   -3.7993559277865D-01     0.0
    0.825000   -3.7792934544468D-01     0.0
    0.830000   -3.7591178629839D-01     0.0
    0.835000   -3.7388315704691D-01     0.0
    0.840000   -3.7184370309959D-01     0.0
    0.845000   -3.6979367348877D-01     0.0
    0.850000   -3.6773332078820D-01     0.0
    0.855000   -3.6566290102937D-01     0.0
    0.860000   -3.6358267361563D-01     0.0
    0.865000   -3.6149290123414D-01     0.0
    0.870000   -3.5939384976581D-01     0.0
    0.875000   -3.5728578819305D-01     0.0
    0.880000   -3.5516898850566D-01     0.0
    0.885000   -3.5304372560457D-01     0.0
    0.890000   -3.5091027720378D-01     0.0
    0.895000   -3.4876892373036D-01     0.0
    0.900000   -3.4661994822253D-01     0.0
    0.905000   -3.4446363622619D-01     0.0
    0.910000   -3.4230027568934D-01     0.0
    0.915000   -3.4013015685520D-01     0.0
    0.920000   -3.3795357215338D-01     0.0
    0.925000   -3.3577081608971D-01     0.0
    0.930000   -3.3358218513440D-01     0.0
    0.935000   -3.3138797760881D-01     0.0
    0.940000   -3.2918849357085D-01     0.0
    0.945000   -3.2698403469896D-01     0.0
    0.950000   -3.2477490417493D-01     0.0
    0.955000   -3.2256140656548D-01     0.0
    0.960000   -3.2034384770266D-01     0.0
    0.965000   -3.1812253456331D-01     0.0
    0.970000   -3.1589777514742D-01     0.0
    0.975000   -3.1366987835560D-01     0.0
    0.980000   -3.1143915386580D-01     0.0
    0.985000   -3.0920591200915D-01     0.0
    0.990000   -3.0697046364515D-01     0.0
    0.995000   -3.0473312003632D-01     0.0
    1.000000   -3.0249419272222D-01     0.0
    1.005000   -3.0025399339301D-01     0.0
    1.010000   -2.9801283376282D-01     0.0
    1.015000   -2.9577102544259D-01     0.0
    1.020000   -2.9352887981289D-01     0.0
    1.025000   -2.9128670789649D-01     0.0
    1.030000   -2.8904482023102D-01     0.0
    1.035000   -2.8680352674153D-01     0.0
    1.040000   -2.8456313661333D-01     0.0
    1.045000   -2.8232395816497D-01     0.0
    1.050000   -2.8008629872150D-01     0.0
    1.055000   -2.7785046448820D-01     0.0
    1.060000   -2.7561676042473D-01     0.0
    1.065000   -2.7338549011984D-01     0.0
    1.070000   -2.7115695566682D-01     0.0
    1.075000   -2.6893145753954D-01     0.0
    1.080000   -2.6670929446944D-01     0.0
    1.085000   -2.6449076332340D-01     0.0
    1.090000   -2.6227615898260D-01     0.0
    1.095000   -2.6006577422242D-01     0.0
    1.100000   -2.5785989959361D-01     0.0
    1.105000   -2.5565882330461D-01     0.0
    1.110000   -2.5346283110530D-01     0.0
    1.115000   -2.5127220617210D-01     0.0
    1.120000   -2.4908722899462D-01     0.0
    1.125000   -2.4690817726387D-01     0.0
    1.130000   -2.4473532576215D-01     0.0
    1.135000   -2.4256894625475D-01     0.0
    1.140000   -2.4040930738331D-01     0.0
    1.145000   -2.3825667456129D-01     0.0
    1.150000   -2.3611130987124D-01     0.0
    1.155000   -2.3397347196429D-01     0.0
    1.160000   -2.3184341596160D-01     0.0
    1.165000   -2.2972139335818D-01     0.0
    1.170000   -2.2760765192880D-01     0.0
    1.175000   -2.2550243563645D-01     0.0
    1.180000   -2.2340598454300D-01     0.0
    1.185000   -2.2131853472243D-01     0.0
    1.190000   -2.1924031817663D-01     0.0
    1.195000   -2.1717156275373D-01     0.0
    1.200000   -2.1511249206904D-01     0.0
    1.205000   -2.1306332542882D-01     0.0
    1.210000   -2.1102427775674D-01     0.0
    1.215000   -2.0899555952312D-01     0.0
    1.220000   -2.0697737667710D-01     0.0
    1.225000   -2.0496993058173D-01     0.0
    1.230000   -2.0297341795188D-01     0.0
    1.235000   -2.0098803079536D-01     0.0
    1.240000   -1.9901395635687D-01     0.0
    1.245000   -1.9705137706517D-01     0.0
    1.250000   -1.9510047048324D-01     0.0
    1.255000   -1.9316140926176D-01     0.0
    1.260000   -1.9123436109544D-01     0.0
    1.265000   -1.8931948868290D-01     0.0
    1.270000   -1.8741694968955D-01     0.0
    1.275000   -1.8552689671369D-01     0.0
    1.280000   -1.8364947725605D-01     0.0
    1.285000   -1.8178483369231D-01     0.0
    1.290000   -1.7993310324920D-01     0.0
    1.295000   -1.7809441798365D-01     0.0
    1.300000   -1.7626890476536D-01     0.0
    1.305000   -1.7445668526257D-01     0.0
    1.310000   -1.7265787593124D-01     0.0
    1.315000   -1.7087258800738D-01     0.0
    1.320000   -1.6910092750271D-01     0.0
    1.325000   -1.6734299520370D-01     0.0
    1.330000   -1.6559888667362D-01     0.0
    1.335000   -1.6386869225811D-01     0.0
    1.340000   -1.6215249709374D-01     0.0
    1.345000   -1.6045038111988D-01     0.0
    1.350000   -1.5876241909372D-01  3.566D-02
    1.355000   -1.5708868060855D-01  3.534D-02
    1.360000   -1.5542923011483D-01  3.501D-02
    1.365000   -1.5378412694467D-01  3.469D-02
    1.370000   -1.5215342533924D-01  3.436D-02
    1.375000   -1.5053717447915D-01  3.404D-02
    1.380000   -1.4893541851778D-01  3.371D-02
    1.385000   -1.4734819661763D-01  3.339D-02
    1.390000   -1.4577554298942D-01  3.307D-02
    1.395000   -1.4421748693405D-01  3.274D-02
    1.400000   -1.4267405288738D-01  3.242D-02
    1.405000   -1.4114526046760D-01  3.210D-02
    1.410000   -1.3963112452539D-01  3.178D-02
    1.415000   -1.3813165519657D-01  3.145D-02
    1.420000   -1.3664685795733D-01  3.113D-02
    1.425000   -1.3517673368190D-01  3.081D-02
    1.430000   -1.3372127870262D-01  3.049D-02
    1.435000   -1.3228048487239D-01  3.017D-02
    1.440000   -1.3085433962930D-01  2.985D-02
    1.445000   -1.2944282606351D-01  2.954D-02
    1.450000   -1.2804592298621D-01  2.922D-02
    1.455000   -1.2666360500063D-01  2.890D-02
    1.460000   -1.2529584257500D-01  2.859D-02
    1.465000   -1.2394260211740D-01  2.827D-02
    1.470000   -1.2260384605244D-01  2.796D-02
    1.475000   -1.2127953289955D-01  2.764D-02
    1.480000   -1.1996961735305D-01  2.733D-02
    1.485000   -1.1867405036365D-01  2.702D-02
    1.490000   -1.1739277922150D-01  2.671D-02
    1.495000   -1.1612574764054D-01  2.640D-02
    1.500000   -1.1487289584425D-01  2.609D-02
    1.505000   -1.1363416065247D-01  2.579D-02
    1.510000   -1.1240947556945D-01  2.548D-02
    1.515000   -1.1119877087284D-01  2.518D-02
    1.520000   -1.1000197370373D-01  2.487D-02
    1.525000   -1.0881900815739D-01  2.457D-02
    1.530000   -1.0764979537490D-01  2.427D-02
    1.535000   -1.0649425363537D-01  2.397D-02
    1.540000   -1.0535229844880D-01  2.367D-02
    1.545000   -1.0422384264933D-01  2.338D-02
    1.550000   -1.0310879648905D-01  2.308D-02
    1.555000   -1.0200706773193D-01  2.279D-02
    1.560000   -1.0091856174815D-01  2.250D-02
    1.565000   -9.9843181608457D-02  2.221D-02
    1.570000   -9.8780828178594D-02  2.192D-02
    1.575000   -9.7731400213708D-02  2.163D-02
    1.580000   -9.6694794452629D-02  2.134D-02
    1.585000   -9.5670905711936D-02  2.106D-02
    1.590000   -9.4659626979721D-02  2.078D-02
    1.595000   -9.3660849509017D-02  2.050D-02
    1.600000   -9.2674462910711D-02  2.022D-02
    1.605000   -9.1700355245998D-02  1.994D-02
    1.610000   -9.0738413118149D-02  1.967D-02
    1.615000   -8.9788521763640D-02  1.939D-02
    1.620000   -8.8850565142508D-02  1.912D-02
    1.625000   -8.7924426027850D-02  1.885D-02
    1.630000   -8.7009986094430D-02  1.859D-02
    1.635000   -8.6107126006315D-02  1.832D-02
    1.640000   -8.5215725503436D-02  1.806D-02
    1.645000   -8.4335663487080D-02  1.780D-02
    1.650000   -8.3466818104160D-02  1.754D-02
    1.655000   -8.2609066830288D-02  1.728D-02
    1.660000   -8.1762286551532D-02  1.702D-02
    1.665000   -8.0926353644823D-02  1.677D-02
    1.670000   -8.0101144056949D-02  1.652D-02
    1.675000   -7.9286533382110D-02  1.627D-02
    1.680000   -7.8482396937930D-02  1.602D-02
    1.685000   -7.7688609839956D-02  1.578D-02
    1.690000   -7.6905047074492D-02  1.553D-02
    1.695000   -7.6131583569865D-02  1.529D-02
    1.700000   -7.5368094265935D-02  1.505D-02
    1.705000   -7.4614454181925D-02  1.482D-02
    1.710000   -7.3870538482490D-02  1.458D-02
    1.715000   -7.3136222541968D-02  1.435D-02
    1.720000   -7.2411382006852D-02  1.412D-02
    1.725000   -7.1695892856388D-02  1.389D-02
    1.730000   -7.0989631461309D-02  1.367D-02
    1.735000   -7.0292474640687D-02  1.344D-02
    1.740000   -6.9604299716862D-02  1.322D-02
    1.745000   -6.8924984568442D-02  1.300D-02
    1.750000   -6.8254407681381D-02  1.279D-02
    1.755000   -6.7592448198080D-02  1.257D-02
    1.760000   -6.6938985964542D-02  1.236D-02
    1.765000   -6.6293901575567D-02  1.215D-02
    1.770000   -6.5657076417941D-02  1.194D-02
    1.775000   -6.5028392711709D-02  1.174D-02
    1.780000   -6.4407733549430D-02  1.154D-02
    1.785000   -6.3794982933492D-02  1.134D-02
    1.790000   -6.3190025811456D-02  1.114D-02
    1.795000   -6.2592748109457D-02  1.094D-02
    1.800000   -6.2003036763665D-02  1.075D-02
    1.805000   -6.1420779749816D-02  1.056D-02
    1.810000   -6.0845866110834D-02  1.037D-02
    1.815000   -6.0278185982560D-02  1.018D-02
    1.820000   -5.9717630617614D-02  9.996D-03
    1.825000   -5.9164092407396D-02  9.813D-03
    1.830000   -5.8617464902270D-02  9.633D-03
    1.835000   -5.8077642829944D-02  9.456D-03
    1.840000   -5.7544522112070D-02  9.280D-03
    1.845000   -5.7017999879111D-02  9.107D-03
    1.850000   -5.6497974483488D-02  8.936D-03
    1.855000   -5.5984345511051D-02  8.767D-03
    1.860000   -5.5477013790900D-02  8.601D-03
    1.865000   -5.4975881403600D-02  8.436D-03
    1.870000   -5.4480851687829D-02  8.274D-03
    1.875000   -5.3991829245477D-02  8.115D-03
    1.880000   -5.3508719945270D-02  7.957D-03
    1.885000   -5.3031430924921D-02  7.801D-03
    1.890000   -5.2559870591890D-02  7.648D-03
    1.895000   -5.2093948622766D-02  7.497D-03
    1.900000   -5.1633575961316D-02  7.348D-03
    1.905000   -5.1178664815282D-02  7.201D-03
    1.910000   -5.0729128651914D-02  7.057D-03
    1.915000   -5.0284882192336D-02  6.914D-03
    1.920000   -4.9845841404761D-02  6.774D-03
    1.925000   -4.9411923496624D-02  6.635D-03
    1.930000   -4.8983046905655D-02  6.499D-03
    1.935000   -4.8559131289964D-02  6.365D-03
    1.940000   -4.8140097517177D-02  6.233D-03
    1.945000   -4.7725867652664D-02  6.103D-03
    1.950000   -4.7316364946921D-02  5.975D-03
    1.955000   -4.6911513822146D-02  5.849D-03
    1.960000   -4.6511239858058D-02  5.725D-03
    1.965000   -4.6115469777004D-02  5.603D-03
    1.970000   -4.5724131428424D-02  5.483D-03
    1.975000   -4.5337153772676D-02  5.364D-03
    1.980000   -4.4954466864320D-02  5.248D-03
    1.985000   -4.4576001834873D-02  5.134D-03
    1.990000   -4.4201690875097D-02  5.021D-03
    1.995000   -4.3831467216852D-02  4.911D-03
    2.000000   -4.3465265114575D-02  4.802D-03
    2.005000   -4.3103019826427D-02  4.695D-03
    2.010000   -4.2744667595133D-02  4.590D-03
    2.015000   -4.2390145628582D-02  4.487D-03
    2.020000   -4.2039392080216D-02  4.386D-03
    2.025000   -4.1692346029240D-02  4.286D-03
    2.030000   -4.1348947460726D-02  4.188D-03
    2.035000   -4.1009137245606D-02  4.092D-03
    2.040000   -4.0672857120625D-02  3.998D-03
    2.045000   -4.0340049668267D-02  3.905D-03
    2.050000   -4.0010658296723D-02  3.814D-03
    2.055000   -3.9684627219885D-02  3.725D-03
    2.060000   -3.9361901437452D-02  3.637D-03
    2.065000   -3.9042426715138D-02  3.551D-03
    2.070000   -3.8726149565039D-02  3.467D-03
    2.075000   -3.8413017226173D-02  3.384D-03
    2.080000   -3.8102977645233D-02  3.302D-03
    2.085000   -3.7795979457564D-02  3.223D-03
    2.090000   -3.7491971968402D-02  3.144D-03
    2.095000   -3.7190905134395D-02  3.068D-03
    2.100000   -3.6892729545428D-02  2.992D-03
    2.105000   -3.6597396406769D-02  2.919D-03
    2.110000   -3.6304857521564D-02  2.846D-03
    2.115000   -3.6015065273689D-02  2.775D-03
    2.120000   -3.5727972610982D-02  2.706D-03
    2.125000   -3.5443533028874D-02  2.638D-03
    2.130000   -3.5161700554416D-02  2.571D-03
    2.135000   -3.4882429730748D-02  2.506D-03
    2.140000   -3.4605675601969D-02  2.442D-03
    2.145000   -3.4331393698473D-02  2.379D-03
    2.150000   -3.4059540022730D-02  2.318D-03
    2.155000   -3.3790071035513D-02  2.257D-03
    2.160000   -3.3522943642602D-02  2.199D-03
    2.165000   -3.3258115181945D-02  2.141D-03
    2.170000   -3.2995543411292D-02  2.085D-03
    2.175000   -3.2735186496309D-02  2.029D-03
    2.180000   -3.2477002999152D-02  1.975D-03
    2.185000   -3.2220951867534D-02  1.923D-03
    2.190000   -3.1966992424241D-02  1.871D-03
    2.195000   -3.1715084357141D-02  1.820D-03
    2.200000   -3.1465187709642D-02  1.771D-03
    2.205000   -3.1217262871618D-02  1.723D-03
    2.210000   -3.0971270570800D-02  1.676D-03
    2.215000   -3.0727171864604D-02  1.629D-03
    2.220000   -3.0484928132412D-02  1.584D-03
    2.225000   -3.0244501068279D-02  1.540D-03
    2.230000   -3.0005852674082D-02  1.497D-03
    2.235000   -2.9768945253063D-02  1.455D-03
    2.240000   -2.9533741403803D-02  1.414D-03
    2.245000   -2.9300204014572D-02  1.374D-03
    2.250000   -2.9068296258077D-02  1.335D-03
    2.255000   -2.8837981586566D-02  1.296D-03
    2.260000   -2.8609223727314D-02  1.259D-03
    2.265000   -2.8381986678429D-02  1.223D-03
    2.270000   -2.8156234705009D-02  1.187D-03
    2.275000   -2.7931932335613D-02  1.152D-03
    2.280000   -2.7709044359030D-02  1.118D-03
    2.285000   -2.7487535821346D-02  1.085D-03
    2.290000   -2.7267372023278D-02  1.053D-03
    2.295000   -2.7048518517775D-02  1.022D-03
    2.300000   -2.6830941107856D-02  9.911D-04
    2.305000   -2.6614605844686D-02  9.612D-04
    2.310000   -2.6399479025852D-02  9.322D-04
    2.315000   -2.6185527193852D-02  9.038D-04
    2.320000   -2.5972717134763D-02  8.762D-04
    2.325000   -2.5761015877062D-02  8.493D-04
    2.330000   -2.5550390690623D-02  8.231D-04
    2.335000   -2.5340809085830D-02  7.975D-04
    2.340000   -2.5132238812825D-02  7.727D-04
    2.345000   -2.4924647860859D-02  7.485D-04
    2.350000   -2.4718004457730D-02  7.249D-04
    2.355000   -2.4512277069308D-02  7.020D-04
    2.360000   -2.4307434399122D-02  6.797D-04
    2.365000   -2.4103445387987D-02  6.580D-04
    2.370000   -2.3900279213688D-02  6.369D-04
    2.375000   -2.3697905290666D-02  6.164D-04
    2.380000   -2.3496293269732D-02  5.964D-04
    2.385000   -2.3295413037774D-02  5.770D-04
    2.390000   -2.3095234717446D-02  5.581D-04
    2.395000   -2.2895728666848D-02  5.398D-04
    2.400000   -2.2696865479154D-02  5.220D-04
    2.405000   -2.2498615982205D-02  5.047D-04
    2.410000   -2.2300951238051D-02  4.879D-04
    2.415000   -2.2103842542421D-02  4.715D-04
    2.420000   -2.1907261424119D-02  4.557D-04
    2.425000   -2.1711179644354D-02  4.403D-04
    2.430000   -2.1515569195961D-02  4.253D-04
    2.435000   -2.1320402302547D-02  4.108D-04
    2.440000   -2.1125651417520D-02  3.968D-04
    2.445000   -2.0931289223018D-02  3.831D-04
    2.450000   -2.0737288628722D-02  3.699D-04
    2.455000   -2.0543622770556D-02  3.570D-04
    2.460000   -2.0350265009258D-02  3.446D-04
    2.465000   -2.0157188928833D-02  3.325D-04
    2.470000   -1.9964368334872D-02  3.208D-04
    2.475000   -1.9771777252742D-02  3.094D-04
    2.480000   -1.9579389925646D-02  2.984D-04
    2.485000   -1.9387180812544D-02  2.878D-04
    2.490000   -1.9195124585942D-02  2.774D-04
    2.495000   -1.9003196129546D-02  2.674D-04
    2.500000   -1.8811370535779D-02  2.578D-04
    2.505000   -1.8619623103164D-02  2.484D-04
    2.510000   -1.8427929333580D-02  2.393D-04
    2.515000   -1.8236264929372D-02  2.305D-04
    2.520000   -1.8044605790350D-02  2.220D-04
    2.525000   -1.7852928010645D-02  2.138D-04
    2.530000   -1.7661207875455D-02  2.059D-04
    2.535000   -1.7469421857657D-02  1.982D-04
    2.540000   -1.7277546614316D-02  1.907D-04
    2.545000   -1.7085558983072D-02  1.835D-04
    2.550000   -1.6893435978421D-02  1.766D-04
    2.555000   -1.6701154787896D-02  1.698D-04
    2.560000   -1.6508692768148D-02  1.633D-04
    2.565000   -1.6316027440936D-02  1.571D-04
    2.570000   -1.6123136489023D-02  1.510D-04
    2.575000   -1.5929997752006D-02  1.451D-04
    2.580000   -1.5736589222053D-02  1.395D-04
    2.585000   -1.5542889039586D-02  1.340D-04
    2.590000   -1.5348875488896D-02  1.287D-04
    2.595000   -1.5154526993703D-02  1.236D-04
    2.600000   -1.4959822112664D-02  1.187D-04
    2.605000   -1.4764739534850D-02  1.139D-04
    2.610000   -1.4569258075176D-02  1.094D-04
    2.615000   -1.4373356669811D-02  1.049D-04
    2.620000   -1.4177014371569D-02  1.007D-04
    2.625000   -1.3980210345275D-02  9.656D-05
    2.630000   -1.3782923863140D-02  9.259D-05
    2.635000   -1.3585134300126D-02  8.876D-05
    2.640000   -1.3386821129327D-02  8.507D-05
    2.645000   -1.3187963917355D-02  8.151D-05
    2.650000   -1.2988542319757D-02  7.808D-05
    2.655000   -1.2788536076459D-02  7.477D-05
    2.660000   -1.2587925007237D-02  7.158D-05
    2.665000   -1.2386689007245D-02  6.851D-05
    2.670000   -1.2184808042580D-02  6.556D-05
    2.675000   -1.1982262145903D-02  6.271D-05
    2.680000   -1.1779031412128D-02  5.996D-05
    2.685000   -1.1575095994167D-02  5.732D-05
    2.690000   -1.1370436098764D-02  5.478D-05
    2.695000   -1.1165031982387D-02  5.233D-05
    2.700000   -1.0958863947218D-02  4.998D-05
    2.705000   -1.0751912337231D-02  4.771D-05
    2.710000   -1.0544157534356D-02  4.553D-05
    2.715000   -1.0335579954748D-02  4.343D-05
    2.720000   -1.0126160045152D-02  4.141D-05
    2.725000   -9.9158782793844D-03  3.947D-05
    2.730000   -9.7047151549157D-03  3.760D-05
    2.735000   -9.4926511895701D-03  3.581D-05
    2.740000   -9.2796669183446D-03  3.409D-05
    2.745000   -9.0657428903436D-03  3.243D-05
    2.750000   -8.8508596658436D-03  3.084D-05
    2.755000   -8.6349978134739D-03  2.932D-05
    2.760000   -8.4181379075308D-03  2.785D-05
    2.765000   -8.2002605254219D-03  2.645D-05
    2.770000   -7.9813462452375D-03  2.510D-05
    2.775000   -7.7613756434529D-03  2.380D-05
    2.780000   -7.5403292927692D-03  2.256D-05
    2.785000   -7.3181877600813D-03  2.137D-05
    2.790000   -7.0949316045837D-03  2.024D-05
    2.795000   -6.8705413760107D-03  1.915D-05
    2.800000   -6.6449976130065D-03  1.810D-05
    2.805000   -6.4182808416318D-03  1.711D-05
    2.810000   -6.1903715740027D-03  1.615D-05
    2.815000   -5.9612503070592D-03  1.524D-05
    2.820000   -5.7308975214677D-03  1.437D-05
    2.825000   -5.4992936806491D-03  1.354D-05
    2.830000   -5.2664192299356D-03  1.275D-05
    2.835000   -5.0322545958534D-03  1.199D-05
    2.840000   -4.7967801855264D-03  1.128D-05
    2.845000   -4.5599763862056D-03  1.060D-05
    2.850000   -4.3218235649084D-03  9.948D-06
    2.855000   -4.0823020681857D-03  9.335D-06
    2.860000   -3.8413922219882D-03  8.754D-06
    2.865000   -3.5990743316540D-03  8.205D-06
    2.870000   -3.3553286819948D-03  7.687D-06
    2.875000   -3.1101355374901D-03  7.200D-06
    2.880000   -2.8634751425769D-03  6.743D-06
    2.885000   -2.6153277220401D-03  6.315D-06
    2.890000   -2.3656734814895D-03  5.916D-06
    2.895000   -2.1144926079322D-03  5.545D-06
    2.900000   -1.8617652704215D-03  5.203D-06
    2.905000   -1.6074716207938D-03  4.887D-06
    2.910000   -1.3515917944777D-03  4.599D-06
    2.915000   -1.0941059113724D-03  4.337D-06
    2.920000   -8.3499407680554D-04  4.102D-06
    2.925000   -5.7423638254106D-04  3.891D-06
    2.930000   -3.1181290785598D-04  3.705D-06
    2.935000   -4.7703720671755D-05  3.543D-06
    2.940000    2.1811112126924D-04  3.404D-06
    2.945000    4.8565156917091D-04  3.285D-06
    2.950000    7.5493758191614D-04  3.187D-06
    2.955000    1.0259891247549D-03  3.106D-06
    2.960000    1.2988261679622D-03  3.042D-06
    2.965000    1.5734686854607D-03  2.993D-06
    2.970000    1.8499366534218D-03  2.956D-06
    2.975000    2.1282500488415D-03  2.930D-06
    2.980000    2.4084288480987D-03  2.912D-06
    2.985000    2.6904930254954D-03  2.902D-06
    2.990000    2.9744625517943D-03  2.898D-06
    2.995000    3.2603573927354D-03  2.899D-06
    3.000000    3.5481975075645D-03  2.902D-06
    3.005000    3.8380028475478D-03  2.908D-06
    3.010000    4.1297933544959D-03  2.916D-06
    3.015000    4.4235889592914D-03  2.924D-06
    3.020000    4.7194095804305D-03  2.932D-06
    3.025000    5.0172751225673D-03  2.940D-06
    3.030000    5.3172054750817D-03  2.947D-06
    3.035000    5.6192205106554D-03  2.953D-06
    3.040000    5.9233400838824D-03  2.958D-06
    3.045000    6.2295840298814D-03  2.961D-06
    3.050000    6.5379721629522D-03  2.962D-06
    3.055000    6.8485242752451D-03  2.962D-06
    3.060000    7.1612601354653D-03  2.960D-06
    3.065000    7.4761994876038D-03  2.957D-06
    3.070000    7.7933620497047D-03  2.951D-06
    3.075000    8.1127675126591D-03  2.944D-06
    3.080000    8.4344355390407D-03  2.936D-06
    3.085000    8.7583857619719D-03  2.926D-06
    3.090000    9.0846377840262D-03  2.914D-06
    3.095000    9.4132111761736D-03  2.902D-06
    3.100000    9.7441254767583D-03  2.888D-06
    3.105000    1.0077400190520D-02  2.872D-06
    3.110000    1.0413054787648D-02  2.856D-06
    3.115000    1.0751108702882D-02  2.839D-06
    3.120000    1.1091581334649D-02  2.821D-06
    3.125000    1.1434492044240D-02  2.802D-06
    3.130000    1.1779860155025D-02  2.783D-06
    3.135000    1.2127704951708D-02  2.763D-06
    3.140000    1.2478045679624D-02  2.743D-06
    3.145000    1.2830901544071D-02  2.722D-06
    3.150000    1.3186291709679D-02  2.701D-06
    3.155000    1.3544235299817D-02  2.680D-06
    3.160000    1.3904751396040D-02  2.659D-06
    3.165000    1.4267859037563D-02  2.637D-06
    3.170000    1.4633577220777D-02  2.616D-06
    3.175000    1.5001924898796D-02  2.595D-06
    3.180000    1.5372920981031D-02  2.574D-06
    3.185000    1.5746584332802D-02  2.553D-06
    3.190000    1.6122933774971D-02  2.533D-06
    3.195000    1.6501988083614D-02  2.513D-06
    3.200000    1.6883765989705D-02  2.493D-06
    3.205000    1.7268286178837D-02  2.473D-06
    3.210000    1.7655567290961D-02  2.454D-06
    3.215000    1.8045627920140D-02  2.435D-06
    3.220000    1.8438486614340D-02  2.417D-06
    3.225000    1.8834161875218D-02  2.399D-06
    3.230000    1.9232672157940D-02  2.382D-06
    3.235000    1.9634035871010D-02  2.365D-06
    3.240000    2.0038271376110D-02  2.349D-06
    3.245000    2.0445396987952D-02  2.333D-06
    3.250000    2.0855430974135D-02  2.318D-06
    3.255000    2.1268391555018D-02  2.303D-06
    3.260000    2.1684296903587D-02  2.288D-06