
variables = "r", "B(r) ", "Uncertainty"
zone T = "State 1 B(r)   66N16p6q3Rf4_40     "

    0.001000   -4.7193527795793D-01     0.0
    0.002000   -4.7193527623695D-01     0.0
    0.003000   -4.7193527156571D-01     0.0
    0.004000   -4.7193526246909D-01     0.0
    0.005000   -4.7193524747196D-01     0.0
    0.006000   -4.7193522509919D-01     0.0
    0.007000   -4.7193519387565D-01     0.0
    0.008000   -4.7193515232622D-01     0.0
    0.009000   -4.7193509897575D-01     0.0
    0.010000   -4.7193503234913D-01     0.0
    0.011000   -4.7193495097123D-01     0.0
    0.012000   -4.7193485336692D-01     0.0
    0.013000   -4.7193473806107D-01     0.0
    0.014000   -4.7193460357856D-01     0.0
    0.015000   -4.7193444844427D-01     0.0
    0.016000   -4.7193427118307D-01     0.0
    0.017000   -4.7193407031985D-01     0.0
    0.018000   -4.7193384437950D-01     0.0
    0.019000   -4.7193359188691D-01     0.0
    0.020000   -4.7193331136697D-01     0.0
    0.021000   -4.7193300134460D-01     0.0
    0.022000   -4.7193266034470D-01     0.0
    0.023000   -4.7193228689219D-01     0.0
    0.024000   -4.7193187951199D-01     0.0
    0.025000   -4.7193143672906D-01     0.0
    0.026000   -4.7193095706833D-01     0.0
    0.027000   -4.7193043905477D-01     0.0
    0.028000   -4.7192988121336D-01     0.0
    0.029000   -4.7192928206909D-01     0.0
    0.030000   -4.7192864014695D-01     0.0
    0.031000   -4.7192795397198D-01     0.0
    0.032000   -4.7192722206922D-01     0.0
    0.033000   -4.7192644296374D-01     0.0
    0.034000   -4.7192561518061D-01     0.0
    0.035000   -4.7192473724496D-01     0.0
    0.036000   -4.7192380768191D-01     0.0
    0.037000   -4.7192282501663D-01     0.0
    0.038000   -4.7192178777430D-01     0.0
    0.039000   -4.7192069448015D-01     0.0
    0.040000   -4.7191954365944D-01     0.0
    0.041000   -4.7191833383745D-01     0.0
    0.042000   -4.7191706353949D-01     0.0
    0.043000   -4.7191573129096D-01     0.0
    0.044000   -4.7191433561723D-01     0.0
    0.045000   -4.7191287504377D-01     0.0
    0.046000   -4.7191134809606D-01     0.0
    0.047000   -4.7190975329963D-01     0.0
    0.048000   -4.7190808918009D-01     0.0
    0.049000   -4.7190635426305D-01     0.0
    0.050000   -4.7190454707424D-01     0.0
    0.051000   -4.7190266613940D-01     0.0
    0.052000   -4.7190070998432D-01     0.0
    0.053000   -4.7189867713489D-01     0.0
    0.054000   -4.7189656611706D-01     0.0
    0.055000   -4.7189437545680D-01     0.0
    0.056000   -4.7189210368022D-01     0.0
    0.057000   -4.7188974931345D-01     0.0
    0.058000   -4.7188731088271D-01     0.0
    0.059000   -4.7188478691430D-01     0.0
    0.060000   -4.7188217593463D-01     0.0
    0.061000   -4.7187947647013D-01     0.0
    0.062000   -4.7187668704739D-01     0.0
    0.063000   -4.7187380619304D-01     0.0
    0.064000   -4.7187083243382D-01     0.0
    0.065000   -4.7186776429658D-01     0.0
    0.066000   -4.7186460030825D-01     0.0
    0.067000   -4.7186133899587D-01     0.0
    0.068000   -4.7185797888661D-01     0.0
    0.069000   -4.7185451850770D-01     0.0
    0.070000   -4.7185095638655D-01     0.0
    0.071000   -4.7184729105064D-01     0.0
    0.072000   -4.7184352102758D-01     0.0
    0.073000   -4.7183964484512D-01     0.0
    0.074000   -4.7183566103114D-01     0.0
    0.075000   -4.7183156811363D-01     0.0
    0.076000   -4.7182736462074D-01     0.0
    0.077000   -4.7182304908074D-01     0.0
    0.078000   -4.7181862002207D-01     0.0
    0.079000   -4.7181407597330D-01     0.0
    0.080000   -4.7180941546315D-01     0.0
    0.081000   -4.7180463702052D-01     0.0
    0.082000   -4.7179973917445D-01     0.0
    0.083000   -4.7179472045416D-01     0.0
    0.084000   -4.7178957938901D-01     0.0
    0.085000   -4.7178431450859D-01     0.0
    0.086000   -4.7177892434260D-01     0.0
    0.087000   -4.7177340742099D-01     0.0
    0.088000   -4.7176776227383D-01     0.0
    0.089000   -4.7176198743145D-01     0.0
    0.090000   -4.7175608142432D-01     0.0
    0.091000   -4.7175004278315D-01     0.0
    0.092000   -4.7174387003883D-01     0.0
    0.093000   -4.7173756172249D-01     0.0
    0.094000   -4.7173111636544D-01     0.0
    0.095000   -4.7172453249925D-01     0.0
    0.096000   -4.7171780865566D-01     0.0
    0.097000   -4.7171094336672D-01     0.0
    0.098000   -4.7170393516463D-01     0.0
    0.099000   -4.7169678258190D-01     0.0
    0.100000   -4.7168948415124D-01     0.0
    0.101000   -4.7168203840565D-01     0.0
    0.102000   -4.7167444387836D-01     0.0
    0.103000   -4.7166669910285D-01     0.0
    0.104000   -4.7165880261290D-01     0.0
    0.105000   -4.7165075294254D-01     0.0
    0.106000   -4.7164254862611D-01     0.0
    0.107000   -4.7163418819818D-01     0.0
    0.108000   -4.7162567019365D-01     0.0
    0.109000   -4.7161699314771D-01     0.0
    0.110000   -4.7160815559585D-01     0.0
    0.111000   -4.7159915607384D-01     0.0
    0.112000   -4.7158999311780D-01     0.0
    0.113000   -4.7158066526416D-01     0.0
    0.114000   -4.7157117104966D-01     0.0
    0.115000   -4.7156150901137D-01     0.0
    0.116000   -4.7155167768671D-01     0.0
    0.117000   -4.7154167561344D-01     0.0
    0.118000   -4.7153150132966D-01     0.0
    0.119000   -4.7152115337381D-01     0.0
    0.120000   -4.7151063028475D-01     0.0
    0.121000   -4.7149993060164D-01     0.0
    0.122000   -4.7148905286405D-01     0.0
    0.123000   -4.7147799561191D-01     0.0
    0.124000   -4.7146675738557D-01     0.0
    0.125000   -4.7145533672572D-01     0.0
    0.126000   -4.7144373217352D-01     0.0
    0.127000   -4.7143194227046D-01     0.0
    0.128000   -4.7141996555849D-01     0.0
    0.129000   -4.7140780057999D-01     0.0
    0.130000   -4.7139544587772D-01     0.0
    0.131000   -4.7138289999492D-01     0.0
    0.132000   -4.7137016147523D-01     0.0
    0.133000   -4.7135722886277D-01     0.0
    0.134000   -4.7134410070210D-01     0.0
    0.135000   -4.7133077553824D-01     0.0
    0.136000   -4.7131725191667D-01     0.0
    0.137000   -4.7130352838338D-01     0.0
    0.138000   -4.7128960348481D-01     0.0
    0.139000   -4.7127547576790D-01     0.0
    0.140000   -4.7126114378008D-01     0.0
    0.141000   -4.7124660606930D-01     0.0
    0.142000   -4.7123186118400D-01     0.0
    0.143000   -4.7121690767318D-01     0.0
    0.144000   -4.7120174408632D-01     0.0
    0.145000   -4.7118636897345D-01     0.0
    0.146000   -4.7117078088517D-01     0.0
    0.147000   -4.7115497837260D-01     0.0
    0.148000   -4.7113895998741D-01     0.0
    0.149000   -4.7112272428188D-01     0.0
    0.150000   -4.7110626980882D-01     0.0
    0.151000   -4.7108959512164D-01     0.0
    0.152000   -4.7107269877433D-01     0.0
    0.153000   -4.7105557932149D-01     0.0
    0.154000   -4.7103823531832D-01     0.0
    0.155000   -4.7102066532064D-01     0.0
    0.156000   -4.7100286788487D-01     0.0
    0.157000   -4.7098484156808D-01     0.0
    0.158000   -4.7096658492798D-01     0.0
    0.159000   -4.7094809652293D-01     0.0
    0.160000   -4.7092937491191D-01     0.0
    0.161000   -4.7091041865460D-01     0.0
    0.162000   -4.7089122631134D-01     0.0
    0.163000   -4.7087179644315D-01     0.0
    0.164000   -4.7085212761173D-01     0.0
    0.165000   -4.7083221837951D-01     0.0
    0.166000   -4.7081206730959D-01     0.0
    0.167000   -4.7079167296580D-01     0.0
    0.168000   -4.7077103391268D-01     0.0
    0.169000   -4.7075014871553D-01     0.0
    0.170000   -4.7072901594037D-01     0.0
    0.171000   -4.7070763415398D-01     0.0
    0.172000   -4.7068600192390D-01     0.0
    0.173000   -4.7066411781843D-01     0.0
    0.174000   -4.7064198040664D-01     0.0
    0.175000   -4.7061958825843D-01     0.0
    0.176000   -4.7059693994443D-01     0.0
    0.177000   -4.7057403403613D-01     0.0
    0.178000   -4.7055086910581D-01     0.0
    0.179000   -4.7052744372658D-01     0.0
    0.180000   -4.7050375647238D-01     0.0
    0.181000   -4.7047980591798D-01     0.0
    0.182000   -4.7045559063905D-01     0.0
    0.183000   -4.7043110921206D-01     0.0
    0.184000   -4.7040636021437D-01     0.0
    0.185000   -4.7038134222426D-01     0.0
    0.186000   -4.7035605382085D-01     0.0
    0.187000   -4.7033049358419D-01     0.0
    0.188000   -4.7030466009523D-01     0.0
    0.189000   -4.7027855193583D-01     0.0
    0.190000   -4.7025216768879D-01     0.0
    0.191000   -4.7022550593786D-01     0.0
    0.192000   -4.7019856526773D-01     0.0
    0.193000   -4.7017134426402D-01     0.0
    0.194000   -4.7014384151339D-01     0.0
    0.195000   -4.7011605560343D-01     0.0
    0.196000   -4.7008798512271D-01     0.0
    0.197000   -4.7005962866083D-01     0.0
    0.198000   -4.7003098480838D-01     0.0
    0.199000   -4.7000205215700D-01     0.0
    0.200000   -4.6997282929933D-01     0.0
    0.201000   -4.6994331482906D-01     0.0
    0.202000   -4.6991350734095D-01     0.0
    0.203000   -4.6988340543079D-01     0.0
    0.204000   -4.6985300769548D-01     0.0
    0.205000   -4.6982231273297D-01     0.0
    0.206000   -4.6979131914233D-01     0.0
    0.207000   -4.6976002552372D-01     0.0
    0.208000   -4.6972843047842D-01     0.0
    0.209000   -4.6969653260884D-01     0.0
    0.210000   -4.6966433051854D-01     0.0
    0.211000   -4.6963182281218D-01     0.0
    0.212000   -4.6959900809564D-01     0.0
    0.213000   -4.6956588497594D-01     0.0
    0.214000   -4.6953245206129D-01     0.0
    0.215000   -4.6949870796107D-01     0.0
    0.216000   -4.6946465128590D-01     0.0
    0.217000   -4.6943028064758D-01     0.0
    0.218000   -4.6939559465917D-01     0.0
    0.219000   -4.6936059193494D-01     0.0
    0.220000   -4.6932527109041D-01     0.0
    0.221000   -4.6928963074238D-01     0.0
    0.222000   -4.6925366950891D-01     0.0
    0.223000   -4.6921738600934D-01     0.0
    0.224000   -4.6918077886429D-01     0.0
    0.225000   -4.6914384669574D-01     0.0
    0.226000   -4.6910658812692D-01     0.0
    0.227000   -4.6906900178241D-01     0.0
    0.228000   -4.6903108628817D-01     0.0
    0.229000   -4.6899284027146D-01     0.0
    0.230000   -4.6895426236094D-01     0.0
    0.231000   -4.6891535118662D-01     0.0
    0.232000   -4.6887610537991D-01     0.0
    0.233000   -4.6883652357363D-01     0.0
    0.234000   -4.6879660440199D-01     0.0
    0.235000   -4.6875634650064D-01     0.0
    0.236000   -4.6871574850666D-01     0.0
    0.237000   -4.6867480905857D-01     0.0
    0.238000   -4.6863352679637D-01     0.0
    0.239000   -4.6859190036151D-01     0.0
    0.240000   -4.6854992839694D-01     0.0
    0.241000   -4.6850760954709D-01     0.0
    0.242000   -4.6846494245792D-01     0.0
    0.243000   -4.6842192577690D-01     0.0
    0.244000   -4.6837855815302D-01     0.0
    0.245000   -4.6833483823683D-01     0.0
    0.246000   -4.6829076468045D-01     0.0
    0.247000   -4.6824633613754D-01     0.0
    0.248000   -4.6820155126338D-01     0.0
    0.249000   -4.6815640871481D-01     0.0
    0.250000   -4.6811090715029D-01     0.0
    0.251000   -4.6806504522993D-01     0.0
    0.252000   -4.6801882161542D-01     0.0
    0.253000   -4.6797223497014D-01     0.0
    0.254000   -4.6792528395911D-01     0.0
    0.255000   -4.6787796724904D-01     0.0
    0.256000   -4.6783028350829D-01     0.0
    0.257000   -4.6778223140695D-01     0.0
    0.258000   -4.6773380961681D-01     0.0
    0.259000   -4.6768501681138D-01     0.0
    0.260000   -4.6763585166591D-01     0.0
    0.261000   -4.6758631285740D-01     0.0
    0.262000   -4.6753639906462D-01     0.0
    0.263000   -4.6748610896809D-01     0.0
    0.264000   -4.6743544125015D-01     0.0
    0.265000   -4.6738439459492D-01     0.0
    0.266000   -4.6733296768836D-01     0.0
    0.267000   -4.6728115921824D-01     0.0
    0.268000   -4.6722896787416D-01     0.0
    0.269000   -4.6717639234761D-01     0.0
    0.270000   -4.6712343133193D-01     0.0
    0.271000   -4.6707008352232D-01     0.0
    0.272000   -4.6701634761593D-01     0.0
    0.273000   -4.6696222231176D-01     0.0
    0.274000   -4.6690770631077D-01     0.0
    0.275000   -4.6685279831586D-01     0.0
    0.276000   -4.6679749703184D-01     0.0
    0.277000   -4.6674180116553D-01     0.0
    0.278000   -4.6668570942570D-01     0.0
    0.279000   -4.6662922052313D-01     0.0
    0.280000   -4.6657233317058D-01     0.0
    0.281000   -4.6651504608285D-01     0.0
    0.282000   -4.6645735797676D-01     0.0
    0.283000   -4.6639926757119D-01     0.0
    0.284000   -4.6634077358706D-01     0.0
    0.285000   -4.6628187474737D-01     0.0
    0.286000   -4.6622256977724D-01     0.0
    0.287000   -4.6616285740384D-01     0.0
    0.288000   -4.6610273635649D-01     0.0
    0.289000   -4.6604220536664D-01     0.0
    0.290000   -4.6598126316786D-01     0.0
    0.291000   -4.6591990849590D-01     0.0
    0.292000   -4.6585814008870D-01     0.0
    0.293000   -4.6579595668633D-01     0.0
    0.294000   -4.6573335703112D-01     0.0
    0.295000   -4.6567033986758D-01     0.0
    0.296000   -4.6560690394245D-01     0.0
    0.297000   -4.6554304800475D-01     0.0
    0.298000   -4.6547877080571D-01     0.0
    0.299000   -4.6541407109887D-01     0.0
    0.300000   -4.6534894764003D-01     0.0
    0.301000   -4.6528339918731D-01     0.0
    0.302000   -4.6521742450114D-01     0.0
    0.303000   -4.6515102234429D-01     0.0
    0.304000   -4.6508419148184D-01     0.0
    0.305000   -4.6501693068128D-01     0.0
    0.306000   -4.6494923871244D-01     0.0
    0.307000   -4.6488111434755D-01     0.0
    0.308000   -4.6481255636125D-01     0.0
    0.309000   -4.6474356353058D-01     0.0
    0.310000   -4.6467413463502D-01     0.0
    0.311000   -4.6460426845651D-01     0.0
    0.312000   -4.6453396377944D-01     0.0
    0.313000   -4.6446321939069D-01     0.0
    0.314000   -4.6439203407961D-01     0.0
    0.315000   -4.6432040663808D-01     0.0
    0.316000   -4.6424833586049D-01     0.0
    0.317000   -4.6417582054377D-01     0.0
    0.318000   -4.6410285948739D-01     0.0
    0.319000   -4.6402945149342D-01     0.0
    0.320000   -4.6395559536647D-01     0.0
    0.321000   -4.6388128991378D-01     0.0
    0.322000   -4.6380653394518D-01     0.0
    0.323000   -4.6373132627313D-01     0.0
    0.324000   -4.6365566571274D-01     0.0
    0.325000   -4.6357955108180D-01     0.0
    0.326000   -4.6350298120071D-01     0.0
    0.327000   -4.6342595489261D-01     0.0
    0.328000   -4.6334847098331D-01     0.0
    0.329000   -4.6327052830139D-01     0.0
    0.330000   -4.6319212567809D-01     0.0
    0.331000   -4.6311326194746D-01     0.0
    0.332000   -4.6303393594627D-01     0.0
    0.333000   -4.6295414651411D-01     0.0
    0.334000   -4.6287389249333D-01     0.0
    0.335000   -4.6279317272910D-01     0.0
    0.336000   -4.6271198606943D-01     0.0
    0.337000   -4.6263033136513D-01     0.0
    0.338000   -4.6254820746992D-01     0.0
    0.339000   -4.6246561324035D-01     0.0
    0.340000   -4.6238254753587D-01     0.0
    0.341000   -4.6229900921885D-01     0.0
    0.342000   -4.6221499715455D-01     0.0
    0.343000   -4.6213051021116D-01     0.0
    0.344000   -4.6204554725986D-01     0.0
    0.345000   -4.6196010717474D-01     0.0
    0.346000   -4.6187418883292D-01     0.0
    0.347000   -4.6178779111447D-01     0.0
    0.348000   -4.6170091290252D-01     0.0
    0.349000   -4.6161355308318D-01     0.0
    0.350000   -4.6152571054562D-01     0.0
    0.351000   -4.6143738418208D-01     0.0
    0.352000   -4.6134857288787D-01     0.0
    0.353000   -4.6125927556136D-01     0.0
    0.354000   -4.6116949110408D-01     0.0
    0.355000   -4.6107921842063D-01     0.0
    0.356000   -4.6098845641876D-01     0.0
    0.357000   -4.6089720400938D-01     0.0
    0.358000   -4.6080546010660D-01     0.0
    0.359000   -4.6071322362762D-01     0.0
    0.360000   -4.6062049349296D-01     0.0
    0.361000   -4.6052726862625D-01     0.0
    0.362000   -4.6043354795442D-01     0.0
    0.363000   -4.6033933040763D-01     0.0
    0.364000   -4.6024461491927D-01     0.0
    0.365000   -4.6014940042607D-01     0.0
    0.366000   -4.6005368586799D-01     0.0
    0.367000   -4.5995747018834D-01     0.0
    0.368000   -4.5986075233377D-01     0.0
    0.369000   -4.5976353125422D-01     0.0
    0.370000   -4.5966580590304D-01     0.0
    0.371000   -4.5956757523692D-01     0.0
    0.372000   -4.5946883821597D-01     0.0
    0.373000   -4.5936959380368D-01     0.0
    0.374000   -4.5926984096697D-01     0.0
    0.375000   -4.5916957867620D-01     0.0
    0.376000   -4.5906880590520D-01     0.0
    0.377000   -4.5896752163125D-01     0.0
    0.378000   -4.5886572483512D-01     0.0
    0.379000   -4.5876341450108D-01     0.0
    0.380000   -4.5866058961692D-01     0.0
    0.381000   -4.5855724917398D-01     0.0
    0.382000   -4.5845339216713D-01     0.0
    0.383000   -4.5834901759481D-01     0.0
    0.384000   -4.5824412445907D-01     0.0
    0.385000   -4.5813871176551D-01     0.0
    0.386000   -4.5803277852338D-01     0.0
    0.387000   -4.5792632374555D-01     0.0
    0.388000   -4.5781934644854D-01     0.0
    0.389000   -4.5771184565253D-01     0.0
    0.390000   -4.5760382038138D-01     0.0
    0.391000   -4.5749526966264D-01     0.0
    0.392000   -4.5738619252758D-01     0.0
    0.393000   -4.5727658801120D-01     0.0
    0.394000   -4.5716645515223D-01     0.0
    0.395000   -4.5705579299316D-01     0.0
    0.396000   -4.5694460058028D-01     0.0
    0.397000   -4.5683287696364D-01     0.0
    0.398000   -4.5672062119712D-01     0.0
    0.399000   -4.5660783233841D-01     0.0
    0.400000   -4.5649450944904D-01     0.0
    0.401000   -4.5638065159442D-01     0.0
    0.402000   -4.5626625784379D-01     0.0
    0.403000   -4.5615132727034D-01     0.0
    0.404000   -4.5603585895108D-01     0.0
    0.405000   -4.5591985196702D-01     0.0
    0.406000   -4.5580330540307D-01     0.0
    0.407000   -4.5568621834809D-01     0.0
    0.408000   -4.5556858989493D-01     0.0
    0.409000   -4.5545041914040D-01     0.0
    0.410000   -4.5533170518531D-01     0.0
    0.411000   -4.5521244713452D-01     0.0
    0.412000   -4.5509264409691D-01     0.0
    0.413000   -4.5497229518537D-01     0.0
    0.414000   -4.5485139951693D-01     0.0
    0.415000   -4.5472995621262D-01     0.0
    0.416000   -4.5460796439764D-01     0.0
    0.417000   -4.5448542320125D-01     0.0
    0.418000   -4.5436233175687D-01     0.0
    0.419000   -4.5423868920206D-01     0.0
    0.420000   -4.5411449467853D-01     0.0
    0.421000   -4.5398974733219D-01     0.0
    0.422000   -4.5386444631311D-01     0.0
    0.423000   -4.5373859077561D-01     0.0
    0.424000   -4.5361217987820D-01     0.0
    0.425000   -4.5348521278367D-01     0.0
    0.426000   -4.5335768865903D-01     0.0
    0.427000   -4.5322960667559D-01     0.0
    0.428000   -4.5310096600894D-01     0.0
    0.429000   -4.5297176583896D-01     0.0
    0.430000   -4.5284200534990D-01     0.0
    0.431000   -4.5271168373029D-01     0.0
    0.432000   -4.5258080017306D-01     0.0
    0.433000   -4.5244935387547D-01     0.0
    0.434000   -4.5231734403921D-01     0.0
    0.435000   -4.5218476987032D-01     0.0
    0.436000   -4.5205163057930D-01     0.0
    0.437000   -4.5191792538108D-01     0.0
    0.438000   -4.5178365349501D-01     0.0
    0.439000   -4.5164881414493D-01     0.0
    0.440000   -4.5151340655914D-01     0.0
    0.441000   -4.5137742997047D-01     0.0
    0.442000   -4.5124088361624D-01     0.0
    0.443000   -4.5110376673828D-01     0.0
    0.444000   -4.5096607858301D-01     0.0
    0.445000   -4.5082781840136D-01     0.0
    0.446000   -4.5068898544889D-01     0.0
    0.447000   -4.5054957898569D-01     0.0
    0.448000   -4.5040959827651D-01     0.0
    0.449000   -4.5026904259069D-01     0.0
    0.450000   -4.5012791120222D-01     0.0
    0.451000   -4.4998620338975D-01     0.0
    0.452000   -4.4984391843658D-01     0.0
    0.453000   -4.4970105563071D-01     0.0
    0.454000   -4.4955761426486D-01     0.0
    0.455000   -4.4941359363641D-01     0.0
    0.456000   -4.4926899304752D-01     0.0
    0.457000   -4.4912381180509D-01     0.0
    0.458000   -4.4897804922077D-01     0.0
    0.459000   -4.4883170461100D-01     0.0
    0.460000   -4.4868477729699D-01     0.0
    0.461000   -4.4853726660480D-01     0.0
    0.462000   -4.4838917186527D-01     0.0
    0.463000   -4.4824049241412D-01     0.0
    0.464000   -4.4809122759189D-01     0.0
    0.465000   -4.4794137674402D-01     0.0
    0.466000   -4.4779093922082D-01     0.0
    0.467000   -4.4763991437750D-01     0.0
    0.468000   -4.4748830157419D-01     0.0
    0.469000   -4.4733610017595D-01     0.0
    0.470000   -4.4718330955279D-01     0.0
    0.471000   -4.4702992907968D-01     0.0
    0.472000   -4.4687595813657D-01     0.0
    0.473000   -4.4672139610840D-01     0.0
    0.474000   -4.4656624238512D-01     0.0
    0.475000   -4.4641049636168D-01     0.0
    0.476000   -4.4625415743810D-01     0.0
    0.477000   -4.4609722501945D-01     0.0
    0.478000   -4.4593969851584D-01     0.0
    0.479000   -4.4578157734248D-01     0.0
    0.480000   -4.4562286091967D-01     0.0
    0.481000   -4.4546354867282D-01     0.0
    0.482000   -4.4530364003250D-01     0.0
    0.483000   -4.4514313443438D-01     0.0
    0.484000   -4.4498203131930D-01     0.0
    0.485000   -4.4482033013326D-01     0.0
    0.486000   -4.4465803032748D-01     0.0
    0.487000   -4.4449513135834D-01     0.0
    0.488000   -4.4433163268746D-01     0.0
    0.489000   -4.4416753378168D-01     0.0
    0.490000   -4.4400283411309D-01     0.0
    0.491000   -4.4383753315903D-01     0.0
    0.492000   -4.4367163040212D-01     0.0
    0.493000   -4.4350512533025D-01     0.0
    0.494000   -4.4333801743665D-01     0.0
    0.495000   -4.4317030621983D-01     0.0
    0.496000   -4.4300199118365D-01     0.0
    0.497000   -4.4283307183731D-01     0.0
    0.498000   -4.4266354769535D-01     0.0
    0.499000   -4.4249341827771D-01     0.0
    0.500000   -4.4232268310971D-01     0.0
    0.501000   -4.4215134172208D-01     0.0
    0.502000   -4.4197939365093D-01     0.0
    0.503000   -4.4180683843784D-01     0.0
    0.504000   -4.4163367562982D-01     0.0
    0.505000   -4.4145990477931D-01     0.0
    0.506000   -4.4128552544428D-01     0.0
    0.507000   -4.4111053718814D-01     0.0
    0.508000   -4.4093493957980D-01     0.0
    0.509000   -4.4075873219371D-01     0.0
    0.510000   -4.4058191460982D-01     0.0
    0.511000   -4.4040448641363D-01     0.0
    0.512000   -4.4022644719619D-01     0.0
    0.513000   -4.4004779655413D-01     0.0
    0.514000   -4.3986853408965D-01     0.0
    0.515000   -4.3968865941055D-01     0.0
    0.516000   -4.3950817213023D-01     0.0
    0.517000   -4.3932707186772D-01     0.0
    0.518000   -4.3914535824767D-01     0.0
    0.519000   -4.3896303090041D-01     0.0
    0.520000   -4.3878008946189D-01     0.0
    0.521000   -4.3859653357376D-01     0.0
    0.522000   -4.3841236288335D-01     0.0
    0.523000   -4.3822757704369D-01     0.0
    0.524000   -4.3804217571353D-01     0.0
    0.525000   -4.3785615855735D-01     0.0
    0.526000   -4.3766952524534D-01     0.0
    0.527000   -4.3748227545348D-01     0.0
    0.528000   -4.3729440886349D-01     0.0
    0.529000   -4.3710592516289D-01     0.0
    0.530000   -4.3691682404496D-01     0.0
    0.531000   -4.3672710520882D-01     0.0
    0.532000   -4.3653676835937D-01     0.0
    0.533000   -4.3634581320736D-01     0.0
    0.534000   -4.3615423946939D-01     0.0
    0.535000   -4.3596204686788D-01     0.0
    0.536000   -4.3576923513114D-01     0.0
    0.537000   -4.3557580399335D-01     0.0
    0.538000   -4.3538175319461D-01     0.0
    0.539000   -4.3518708248086D-01     0.0
    0.540000   -4.3499179160401D-01     0.0
    0.541000   -4.3479588032187D-01     0.0
    0.542000   -4.3459934839821D-01     0.0
    0.543000   -4.3440219560273D-01     0.0
    0.544000   -4.3420442171109D-01     0.0
    0.545000   -4.3400602650495D-01     0.0
    0.546000   -4.3380700977193D-01     0.0
    0.547000   -4.3360737130566D-01     0.0
    0.548000   -4.3340711090578D-01     0.0
    0.549000   -4.3320622837796D-01     0.0
    0.550000   -4.3300472353387D-01     0.0
    0.551000   -4.3280259619126D-01     0.0
    0.552000   -4.3259984617392D-01     0.0
    0.553000   -4.3239647331170D-01     0.0
    0.554000   -4.3219247744055D-01     0.0
    0.555000   -4.3198785840250D-01     0.0
    0.556000   -4.3178261604566D-01     0.0
    0.557000   -4.3157675022428D-01     0.0
    0.558000   -4.3137026079871D-01     0.0
    0.559000   -4.3116314763546D-01     0.0
    0.560000   -4.3095541060716D-01     0.0
    0.561000   -4.3074704959260D-01     0.0
    0.562000   -4.3053806447674D-01     0.0
    0.563000   -4.3032845515073D-01     0.0
    0.564000   -4.3011822151188D-01     0.0
    0.565000   -4.2990736346371D-01     0.0
    0.566000   -4.2969588091596D-01     0.0
    0.567000   -4.2948377378457D-01     0.0
    0.568000   -4.2927104199172D-01     0.0
    0.569000   -4.2905768546582D-01     0.0
    0.570000   -4.2884370414154D-01     0.0
    0.571000   -4.2862909795979D-01     0.0
    0.572000   -4.2841386686778D-01     0.0
    0.573000   -4.2819801081897D-01     0.0
    0.574000   -4.2798152977313D-01     0.0
    0.575000   -4.2776442369631D-01     0.0
    0.576000   -4.2754669256088D-01     0.0
    0.577000   -4.2732833634553D-01     0.0
    0.578000   -4.2710935503527D-01     0.0
    0.579000   -4.2688974862145D-01     0.0
    0.580000   -4.2666951710177D-01     0.0
    0.581000   -4.2644866048027D-01     0.0
    0.582000   -4.2622717876740D-01     0.0
    0.583000   -4.2600507197991D-01     0.0
    0.584000   -4.2578234014101D-01     0.0
    0.585000   -4.2555898328024D-01     0.0
    0.586000   -4.2533500143360D-01     0.0
    0.587000   -4.2511039464344D-01     0.0
    0.588000   -4.2488516295856D-01     0.0
    0.589000   -4.2465930643421D-01     0.0
    0.590000   -4.2443282513202D-01     0.0
    0.591000   -4.2420571912014D-01     0.0
    0.592000   -4.2397798847307D-01     0.0
    0.593000   -4.2374963327188D-01     0.0
    0.594000   -4.2352065360403D-01     0.0
    0.595000   -4.2329104956350D-01     0.0
    0.596000   -4.2306082125076D-01     0.0
    0.597000   -4.2282996877272D-01     0.0
    0.598000   -4.2259849224286D-01     0.0
    0.599000   -4.2236639178113D-01     0.0
    0.600000   -4.2213366751401D-01     0.0
    0.601000   -4.2190031957450D-01     0.0
    0.602000   -4.2166634810214D-01     0.0
    0.603000   -4.2143175324299D-01     0.0
    0.604000   -4.2119653514969D-01     0.0
    0.605000   -4.2096069398141D-01     0.0
    0.606000   -4.2072422990389D-01     0.0
    0.607000   -4.2048714308945D-01     0.0
    0.608000   -4.2024943371697D-01     0.0
    0.609000   -4.2001110197191D-01     0.0
    0.610000   -4.1977214804635D-01     0.0
    0.611000   -4.1953257213892D-01     0.0
    0.612000   -4.1929237445490D-01     0.0
    0.613000   -4.1905155520616D-01     0.0
    0.614000   -4.1881011461118D-01     0.0
    0.615000   -4.1856805289508D-01     0.0
    0.616000   -4.1832537028959D-01     0.0
    0.617000   -4.1808206703310D-01     0.0
    0.618000   -4.1783814337062D-01     0.0
    0.619000   -4.1759359955381D-01     0.0
    0.620000   -4.1734843584102D-01     0.0
    0.621000   -4.1710265249719D-01     0.0
    0.622000   -4.1685624979399D-01     0.0
    0.623000   -4.1660922800973D-01     0.0
    0.624000   -4.1636158742942D-01     0.0
    0.625000   -4.1611332834472D-01     0.0
    0.626000   -4.1586445105399D-01     0.0
    0.627000   -4.1561495586229D-01     0.0
    0.628000   -4.1536484308139D-01     0.0
    0.629000   -4.1511411302973D-01     0.0
    0.630000   -4.1486276603250D-01     0.0
    0.631000   -4.1461080242155D-01     0.0
    0.632000   -4.1435822253550D-01     0.0
    0.633000   -4.1410502671967D-01     0.0
    0.634000   -4.1385121532608D-01     0.0
    0.635000   -4.1359678871354D-01     0.0
    0.636000   -4.1334174724756D-01     0.0
    0.637000   -4.1308609130039D-01     0.0
    0.638000   -4.1282982125102D-01     0.0
    0.639000   -4.1257293748521D-01     0.0
    0.640000   -4.1231544039547D-01     0.0
    0.641000   -4.1205733038104D-01     0.0
    0.642000   -4.1179860784794D-01     0.0
    0.643000   -4.1153927320897D-01     0.0
    0.644000   -4.1127932688365D-01     0.0
    0.645000   -4.1101876929832D-01     0.0
    0.646000   -4.1075760088607D-01     0.0
    0.647000   -4.1049582208678D-01     0.0
    0.648000   -4.1023343334709D-01     0.0
    0.649000   -4.0997043512044D-01     0.0
    0.650000   -4.0970682786706D-01     0.0
    0.651000   -4.0944261205396D-01     0.0
    0.652000   -4.0917778815494D-01     0.0
    0.653000   -4.0891235665059D-01     0.0
    0.654000   -4.0864631802834D-01     0.0
    0.655000   -4.0837967278235D-01     0.0
    0.656000   -4.0811242141364D-01     0.0
    0.657000   -4.0784456443003D-01     0.0
    0.658000   -4.0757610234609D-01     0.0
    0.659000   -4.0730703568328D-01     0.0
    0.660000   -4.0703736496978D-01     0.0
    0.661000   -4.0676709074067D-01     0.0
    0.662000   -4.0649621353780D-01     0.0
    0.663000   -4.0622473390983D-01     0.0
    0.664000   -4.0595265241226D-01     0.0
    0.665000   -4.0567996960737D-01     0.0
    0.666000   -4.0540668606430D-01     0.0
    0.667000   -4.0513280235900D-01     0.0
    0.668000   -4.0485831907421D-01     0.0
    0.669000   -4.0458323679954D-01     0.0
    0.670000   -4.0430755613139D-01     0.0
    0.671000   -4.0403127767301D-01     0.0
    0.672000   -4.0375440203443D-01     0.0
    0.673000   -4.0347692983254D-01     0.0
    0.674000   -4.0319886169106D-01     0.0
    0.675000   -4.0292019824052D-01     0.0
    0.676000   -4.0264094011826D-01     0.0
    0.677000   -4.0236108796848D-01     0.0
    0.678000   -4.0208064244217D-01     0.0
    0.679000   -4.0179960419717D-01     0.0