
variables = "r", "UA(r)", "Uncertainty"
zone T = "State 1 UA(r)  66N16p6q3Rf4_40_C6fr"

    1.350000    1.0904920718098D+00  1.876D-01
    1.355000    1.0888702538367D+00  1.874D-01
    1.360000    1.0872215049445D+00  1.873D-01
    1.365000    1.0855455526354D+00  1.872D-01
    1.370000    1.0838421256768D+00  1.871D-01
    1.375000    1.0821109542286D+00  1.870D-01
    1.380000    1.0803517699718D+00  1.868D-01
    1.385000    1.0785643062417D+00  1.867D-01
    1.390000    1.0767482981616D+00  1.866D-01
    1.395000    1.0749034827812D+00  1.864D-01
    1.400000    1.0730295992156D+00  1.863D-01
    1.405000    1.0711263887885D+00  1.862D-01
    1.410000    1.0691935951774D+00  1.860D-01
    1.415000    1.0672309645605D+00  1.859D-01
    1.420000    1.0652382457680D+00  1.857D-01
    1.425000    1.0632151904340D+00  1.856D-01
    1.430000    1.0611615531521D+00  1.854D-01
    1.435000    1.0590770916332D+00  1.853D-01
    1.440000    1.0569615668651D+00  1.851D-01
    1.445000    1.0548147432757D+00  1.849D-01
    1.450000    1.0526363888973D+00  1.848D-01
    1.455000    1.0504262755340D+00  1.846D-01
    1.460000    1.0481841789312D+00  1.845D-01
    1.465000    1.0459098789470D+00  1.843D-01
    1.470000    1.0436031597262D+00  1.841D-01
    1.475000    1.0412638098763D+00  1.839D-01
    1.480000    1.0388916226450D+00  1.837D-01
    1.485000    1.0364863961009D+00  1.836D-01
    1.490000    1.0340479333146D+00  1.834D-01
    1.495000    1.0315760425430D+00  1.832D-01
    1.500000    1.0290705374142D+00  1.830D-01
    1.505000    1.0265312371153D+00  1.828D-01
    1.510000    1.0239579665808D+00  1.826D-01
    1.515000    1.0213505566829D+00  1.824D-01
    1.520000    1.0187088444234D+00  1.822D-01
    1.525000    1.0160326731267D+00  1.820D-01
    1.530000    1.0133218926341D+00  1.818D-01
    1.535000    1.0105763594990D+00  1.816D-01
    1.540000    1.0077959371838D+00  1.813D-01
    1.545000    1.0049804962570D+00  1.811D-01
    1.550000    1.0021299145913D+00  1.809D-01
    1.555000    9.9924407756259D-01  1.807D-01
    1.560000    9.9632287824910D-01  1.804D-01
    1.565000    9.9336621763140D-01  1.802D-01
    1.570000    9.9037400479234D-01  1.799D-01
    1.575000    9.8734615711726D-01  1.797D-01
    1.580000    9.8428260049414D-01  1.794D-01
    1.585000    9.8118326951369D-01  1.792D-01
    1.590000    9.7804810766902D-01  1.789D-01
    1.595000    9.7487706755491D-01  1.787D-01
    1.600000    9.7167011106643D-01  1.784D-01
    1.605000    9.6842720959678D-01  1.781D-01
    1.610000    9.6514834423416D-01  1.779D-01
    1.615000    9.6183350595745D-01  1.776D-01
    1.620000    9.5848269583069D-01  1.773D-01
    1.625000    9.5509592519594D-01  1.770D-01
    1.630000    9.5167321586449D-01  1.767D-01
    1.635000    9.4821460030623D-01  1.764D-01
    1.640000    9.4472012183690D-01  1.761D-01
    1.645000    9.4118983480308D-01  1.758D-01
    1.650000    9.3762380476471D-01  1.755D-01
    1.655000    9.3402210867492D-01  1.752D-01
    1.660000    9.3038483505700D-01  1.749D-01
    1.665000    9.2671208417822D-01  1.746D-01
    1.670000    9.2300396822040D-01  1.742D-01
    1.675000    9.1926061144685D-01  1.739D-01
    1.680000    9.1548215036568D-01  1.736D-01
    1.685000    9.1166873388901D-01  1.732D-01
    1.690000    9.0782052348807D-01  1.729D-01
    1.695000    9.0393769334382D-01  1.725D-01
    1.700000    9.0002043049292D-01  1.722D-01
    1.705000    8.9606893496883D-01  1.718D-01
    1.710000    8.9208341993772D-01  1.715D-01
    1.715000    8.8806411182914D-01  1.711D-01
    1.720000    8.8401125046100D-01  1.707D-01
    1.725000    8.7992508915871D-01  1.703D-01
    1.730000    8.7580589486841D-01  1.699D-01
    1.735000    8.7165394826368D-01  1.696D-01
    1.740000    8.6746954384591D-01  1.692D-01
    1.745000    8.6325299003780D-01  1.688D-01
    1.750000    8.5900460926988D-01  1.683D-01
    1.755000    8.5472473805982D-01  1.679D-01
    1.760000    8.5041372708424D-01  1.675D-01
    1.765000    8.4607194124284D-01  1.671D-01
    1.770000    8.4169975971463D-01  1.667D-01
    1.775000    8.3729757600599D-01  1.662D-01
    1.780000    8.3286579799036D-01  1.658D-01
    1.785000    8.2840484793936D-01  1.653D-01
    1.790000    8.2391516254510D-01  1.649D-01
    1.795000    8.1939719293348D-01  1.644D-01
    1.800000    8.1485140466830D-01  1.640D-01
    1.805000    8.1027827774592D-01  1.635D-01
    1.810000    8.0567830658030D-01  1.630D-01
    1.815000    8.0105199997828D-01  1.625D-01
    1.820000    7.9639988110484D-01  1.620D-01
    1.825000    7.9172248743819D-01  1.615D-01
    1.830000    7.8702037071457D-01  1.610D-01
    1.835000    7.8229409686250D-01  1.605D-01
    1.840000    7.7754424592639D-01  1.600D-01
    1.845000    7.7277141197939D-01  1.595D-01
    1.850000    7.6797620302523D-01  1.590D-01
    1.855000    7.6315924088905D-01  1.584D-01
    1.860000    7.5832116109699D-01  1.579D-01
    1.865000    7.5346261274454D-01  1.573D-01
    1.870000    7.4858425835343D-01  1.568D-01
    1.875000    7.4368677371704D-01  1.562D-01
    1.880000    7.3877084773429D-01  1.557D-01
    1.885000    7.3383718223180D-01  1.551D-01
    1.890000    7.2888649177444D-01  1.545D-01
    1.895000    7.2391950346408D-01  1.539D-01
    1.900000    7.1893695672661D-01  1.533D-01
    1.905000    7.1393960308716D-01  1.527D-01
    1.910000    7.0892820593348D-01  1.521D-01
    1.915000    7.0390354026758D-01  1.515D-01
    1.920000    6.9886639244561D-01  1.509D-01
    1.925000    6.9381755990594D-01  1.503D-01
    1.930000    6.8875785088561D-01  1.496D-01
    1.935000    6.8368808412516D-01  1.490D-01
    1.940000    6.7860908856185D-01  1.484D-01
    1.945000    6.7352170301149D-01  1.477D-01
    1.950000    6.6842677583892D-01  1.470D-01
    1.955000    6.6332516461724D-01  1.464D-01
    1.960000    6.5821773577595D-01  1.457D-01
    1.965000    6.5310536423818D-01  1.450D-01
    1.970000    6.4798893304715D-01  1.443D-01
    1.975000    6.4286933298205D-01  1.436D-01
    1.980000    6.3774746216352D-01  1.429D-01
    1.985000    6.3262422564899D-01  1.422D-01
    1.990000    6.2750053501808D-01  1.415D-01
    1.995000    6.2237730794831D-01  1.408D-01
    2.000000    6.1725546778137D-01  1.400D-01
    2.005000    6.1213594308024D-01  1.393D-01
    2.010000    6.0701966717750D-01  1.386D-01
    2.015000    6.0190757771505D-01  1.378D-01
    2.020000    5.9680061617556D-01  1.371D-01
    2.025000    5.9169972740616D-01  1.363D-01
    2.030000    5.8660585913444D-01  1.355D-01
    2.035000    5.8151996147740D-01  1.347D-01
    2.040000    5.7644298644353D-01  1.339D-01
    2.045000    5.7137588742851D-01  1.331D-01
    2.050000    5.6631961870498D-01  1.323D-01
    2.055000    5.6127513490661D-01  1.315D-01
    2.060000    5.5624339050714D-01  1.307D-01
    2.065000    5.5122533929468D-01  1.299D-01
    2.070000    5.4622193384175D-01  1.291D-01
    2.075000    5.4123412497157D-01  1.282D-01
    2.080000    5.3626286122104D-01  1.274D-01
    2.085000    5.3130908830088D-01  1.265D-01
    2.090000    5.2637374855351D-01  1.257D-01
    2.095000    5.2145778040901D-01  1.248D-01
    2.100000    5.1656211783991D-01  1.239D-01
    2.105000    5.1168768981508D-01  1.231D-01
    2.110000    5.0683541975341D-01  1.222D-01
    2.115000    5.0200622497776D-01  1.213D-01
    2.120000    4.9720101616970D-01  1.204D-01
    2.125000    4.9242069682566D-01  1.195D-01
    2.130000    4.8766616271487D-01  1.186D-01
    2.135000    4.8293830133983D-01  1.176D-01
    2.140000    4.7823799139977D-01  1.167D-01
    2.145000    4.7356610225760D-01  1.158D-01
    2.150000    4.6892349341100D-01  1.149D-01
    2.155000    4.6431101396817D-01  1.139D-01
    2.160000    4.5972950212874D-01  1.130D-01
    2.165000    4.5517978467043D-01  1.120D-01
    2.170000    4.5066267644206D-01  1.110D-01
    2.175000    4.4617897986334D-01  1.101D-01
    2.180000    4.4172948443204D-01  1.091D-01
    2.185000    4.3731496623909D-01  1.081D-01
    2.190000    4.3293618749206D-01  1.071D-01
    2.195000    4.2859389604767D-01  1.062D-01
    2.200000    4.2428882495368D-01  1.052D-01
    2.205000    4.2002169200079D-01  1.042D-01
    2.210000    4.1579319928495D-01  1.031D-01
    2.215000    4.1160403278067D-01  1.021D-01
    2.220000    4.0745486192564D-01  1.011D-01
    2.225000    4.0334633921732D-01  1.001D-01
    2.230000    3.9927909982176D-01  9.907D-02
    2.235000    3.9525376119517D-01  9.804D-02
    2.240000    3.9127092271872D-01  9.700D-02
    2.245000    3.8733116534677D-01  9.596D-02
    2.250000    3.8343505126917D-01  9.491D-02
    2.255000    3.7958312358784D-01  9.386D-02
    2.260000    3.7577590600796D-01  9.281D-02
    2.265000    3.7201390254428D-01  9.175D-02
    2.270000    3.6829759724265D-01  9.068D-02
    2.275000    3.6462745391725D-01  8.962D-02
    2.280000    3.6100391590369D-01  8.855D-02
    2.285000    3.5742740582828D-01  8.747D-02
    2.290000    3.5389832539371D-01  8.639D-02
    2.295000    3.5041705518136D-01  8.531D-02
    2.300000    3.4698395447044D-01  8.423D-02
    2.305000    3.4359936107410D-01  8.314D-02
    2.310000    3.4026359119276D-01  8.205D-02
    2.315000    3.3697693928469D-01  8.095D-02
    2.320000    3.3373967795397D-01  7.986D-02
    2.325000    3.3055205785606D-01  7.876D-02
    2.330000    3.2741430762079D-01  7.766D-02
    2.335000    3.2432663379310D-01  7.655D-02
    2.340000    3.2128922079130D-01  7.545D-02
    2.345000    3.1830223088306D-01  7.434D-02
    2.350000    3.1536580417897D-01  7.323D-02
    2.355000    3.1248005864368D-01  7.212D-02
    2.360000    3.0964509012455D-01  7.100D-02
    2.365000    3.0686097239775D-01  6.989D-02
    2.370000    3.0412775723165D-01  6.877D-02
    2.375000    3.0144547446735D-01  6.766D-02
    2.380000    2.9881413211638D-01  6.654D-02
    2.385000    2.9623371647508D-01  6.542D-02
    2.390000    2.9370419225577D-01  6.430D-02
    2.395000    2.9122550273437D-01  6.318D-02
    2.400000    2.8879756991416D-01  6.207D-02
    2.405000    2.8642029470562D-01  6.095D-02
    2.410000    2.8409355712184D-01  5.983D-02
    2.415000    2.8181721648948D-01  5.871D-02
    2.420000    2.7959111167471D-01  5.759D-02
    2.425000    2.7741506132402D-01  5.648D-02
    2.430000    2.7528886411940D-01  5.536D-02
    2.435000    2.7321229904765D-01  5.425D-02
    2.440000    2.7118512568337D-01  5.313D-02
    2.445000    2.6920708448531D-01  5.202D-02
    2.450000    2.6727789710558D-01  5.091D-02
    2.455000    2.6539726671148D-01  4.980D-02
    2.460000    2.6356487831929D-01  4.870D-02
    2.465000    2.6178039913980D-01  4.759D-02
    2.470000    2.6004347893504D-01  4.649D-02
    2.475000    2.5835375038569D-01  4.540D-02
    2.480000    2.5671082946881D-01  4.430D-02
    2.485000    2.5511431584543D-01  4.321D-02
    2.490000    2.5356379325734D-01  4.212D-02
    2.495000    2.5205882993282D-01  4.104D-02
    2.500000    2.5059897900061D-01  3.996D-02
    2.505000    2.4918377891185D-01  3.888D-02
    2.510000    2.4781275386916D-01  3.781D-02
    2.515000    2.4648541426275D-01  3.675D-02
    2.520000    2.4520125711266D-01  3.569D-02
    2.525000    2.4395976651692D-01  3.463D-02
    2.530000    2.4276041410491D-01  3.358D-02
    2.535000    2.4160265949556D-01  3.254D-02
    2.540000    2.4048595075975D-01  3.150D-02
    2.545000    2.3940972488646D-01  3.047D-02
    2.550000    2.3837340825218D-01  2.945D-02
    2.555000    2.3737641709300D-01  2.843D-02
    2.560000    2.3641815797895D-01  2.743D-02
    2.565000    2.3549802829005D-01  2.643D-02
    2.570000    2.3461541669356D-01  2.544D-02
    2.575000    2.3376970362197D-01  2.446D-02
    2.580000    2.3296026175129D-01  2.350D-02
    2.585000    2.3218645647900D-01  2.254D-02
    2.590000    2.3144764640140D-01  2.160D-02
    2.595000    2.3074318378977D-01  2.067D-02
    2.600000    2.3007241506488D-01  1.975D-02
    2.605000    2.2943468126949D-01  1.885D-02
    2.610000    2.2882931853831D-01  1.797D-02
    2.615000    2.2825565856510D-01  1.711D-02
    2.620000    2.2771302906636D-01  1.627D-02
    2.625000    2.2720075424138D-01  1.545D-02
    2.630000    2.2671815522808D-01  1.466D-02
    2.635000    2.2626455055437D-01  1.390D-02
    2.640000    2.2583925658465D-01  1.317D-02
    2.645000    2.2544158796109D-01  1.249D-02
    2.650000    2.2507085803928D-01  1.184D-02
    2.655000    2.2472637931803D-01  1.124D-02
    2.660000    2.2440746386293D-01  1.070D-02
    2.665000    2.2411342372338D-01  1.023D-02
    2.670000    2.2384357134283D-01  9.816D-03
    2.675000    2.2359721996187D-01  9.483D-03
    2.680000    2.2337368401406D-01  9.232D-03
    2.685000    2.2317227951405D-01  9.068D-03
    2.690000    2.2299232443796D-01  8.994D-03
    2.695000    2.2283313909564D-01  9.009D-03
    2.700000    2.2269404649464D-01  9.110D-03
    2.705000    2.2257437269583D-01  9.293D-03
    2.710000    2.2247344716029D-01  9.551D-03
    2.715000    2.2239060308737D-01  9.875D-03
    2.720000    2.2232517774391D-01  1.026D-02
    2.725000    2.2227651278428D-01  1.069D-02
    2.730000    2.2224395456122D-01  1.117D-02
    2.735000    2.2222685442735D-01  1.168D-02
    2.740000    2.2222456902730D-01  1.222D-02
    2.745000    2.2223646058026D-01  1.278D-02
    2.750000    2.2226189715300D-01  1.336D-02
    2.755000    2.2230025292324D-01  1.396D-02
    2.760000    2.2235090843335D-01  1.457D-02
    2.765000    2.2241325083428D-01  1.519D-02
    2.770000    2.2248667411982D-01  1.582D-02
    2.775000    2.2257057935107D-01  1.645D-02
    2.780000    2.2266437487116D-01  1.708D-02
    2.785000    2.2276747651025D-01  1.772D-02
    2.790000    2.2287930778079D-01  1.835D-02
    2.795000    2.2299930006318D-01  1.899D-02
    2.800000    2.2312689278166D-01  1.962D-02
    2.805000    2.2326153357077D-01  2.025D-02
    2.810000    2.2340267843218D-01  2.088D-02
    2.815000    2.2354979188211D-01  2.151D-02
    2.820000    2.2370234708945D-01  2.212D-02
    2.825000    2.2385982600448D-01  2.274D-02
    2.830000    2.2402171947855D-01  2.335D-02
    2.835000    2.2418752737460D-01  2.395D-02
    2.840000    2.2435675866877D-01  2.455D-02
    2.845000    2.2452893154318D-01  2.514D-02
    2.850000    2.2470357346995D-01  2.573D-02
    2.855000    2.2488022128671D-01  2.631D-02
    2.860000    2.2505842126367D-01  2.688D-02
    2.865000    2.2523772916236D-01  2.745D-02
    2.870000    2.2541771028627D-01  2.800D-02
    2.875000    2.2559793952351D-01  2.855D-02
    2.880000    2.2577800138161D-01  2.910D-02
    2.885000    2.2595749001471D-01  2.963D-02
    2.890000    2.2613600924327D-01  3.016D-02
    2.895000    2.2631317256636D-01  3.068D-02
    2.900000    2.2648860316695D-01  3.119D-02
    2.905000    2.2666193391016D-01  3.170D-02
    2.910000    2.2683280733470D-01  3.220D-02
    2.915000    2.2700087563779D-01  3.268D-02
    2.920000    2.2716580065357D-01  3.317D-02
    2.925000    2.2732725382538D-01  3.364D-02
    2.930000    2.2748491617189D-01  3.410D-02
    2.935000    2.2763847824749D-01  3.456D-02
    2.940000    2.2778764009692D-01  3.501D-02
    2.945000    2.2793211120444D-01  3.545D-02
    2.950000    2.2807161043782D-01  3.588D-02
    2.955000    2.2820586598705D-01  3.631D-02
    2.960000    2.2833461529835D-01  3.673D-02
    2.965000    2.2845760500328D-01  3.713D-02
    2.970000    2.2857459084348D-01  3.754D-02
    2.975000    2.2868533759097D-01  3.793D-02
    2.980000    2.2878961896432D-01  3.831D-02
    2.985000    2.2888721754092D-01  3.869D-02
    2.990000    2.2897792466536D-01  3.906D-02
    2.995000    2.2906154035430D-01  3.942D-02
    3.000000    2.2913787319788D-01  3.978D-02
    3.005000    2.2920674025792D-01  4.012D-02
    3.010000    2.2926796696303D-01  4.046D-02
    3.015000    2.2932138700081D-01  4.079D-02
    3.020000    2.2936684220741D-01  4.111D-02
    3.025000    2.2940418245447D-01  4.143D-02
    3.030000    2.2943326553370D-01  4.173D-02
    3.035000    2.2945395703925D-01  4.203D-02
    3.040000    2.2946613024802D-01  4.233D-02
    3.045000    2.2946966599804D-01  4.261D-02
    3.050000    2.2946445256515D-01  4.289D-02
    3.055000    2.2945038553807D-01  4.316D-02
    3.060000    2.2942736769202D-01  4.342D-02
    3.065000    2.2939530886098D-01  4.368D-02
    3.070000    2.2935412580894D-01  4.392D-02
    3.075000    2.2930374209994D-01  4.417D-02
    3.080000    2.2924408796738D-01  4.440D-02
    3.085000    2.2917510018247D-01  4.463D-02
    3.090000    2.2909672192212D-01  4.485D-02
    3.095000    2.2900890263625D-01  4.506D-02
    3.100000    2.2891159791481D-01  4.527D-02
    3.105000    2.2880476935444D-01  4.547D-02
    3.110000    2.2868838442501D-01  4.566D-02
    3.115000    2.2856241633616D-01  4.585D-02
    3.120000    2.2842684390382D-01  4.603D-02
    3.125000    2.2828165141696D-01  4.620D-02
    3.130000    2.2812682850453D-01  4.637D-02
    3.135000    2.2796237000287D-01  4.653D-02
    3.140000    2.2778827582341D-01  4.668D-02
    3.145000    2.2760455082109D-01  4.683D-02
    3.150000    2.2741120466323D-01  4.697D-02
    3.155000    2.2720825169924D-01  4.711D-02
    3.160000    2.2699571083101D-01  4.724D-02
    3.165000    2.2677360538420D-01  4.736D-02
    3.170000    2.2654196298049D-01  4.748D-02
    3.175000    2.2630081541075D-01  4.759D-02
    3.180000    2.2605019850934D-01  4.770D-02
    3.185000    2.2579015202945D-01  4.780D-02
    3.190000    2.2552071951973D-01  4.789D-02
    3.195000    2.2524194820205D-01  4.798D-02
    3.200000    2.2495388885058D-01  4.807D-02
    3.205000    2.2465659567226D-01  4.815D-02
    3.210000    2.2435012618856D-01  4.822D-02
    3.215000    2.2403454111875D-01  4.829D-02
    3.220000    2.2370990426454D-01  4.835D-02
    3.225000    2.2337628239636D-01  4.841D-02
    3.230000    2.2303374514104D-01  4.846D-02
    3.235000    2.2268236487114D-01  4.851D-02
    3.240000    2.2232221659588D-01  4.855D-02
    3.245000    2.2195337785366D-01  4.859D-02
    3.250000    2.2157592860628D-01  4.862D-02
    3.255000    2.2118995113480D-01  4.865D-02
    3.260000    2.2079552993715D-01  4.868D-02
    3.265000    2.2039275162738D-01  4.870D-02
    3.270000    2.1998170483671D-01  4.871D-02
    3.275000    2.1956248011628D-01  4.872D-02
    3.280000    2.1913516984174D-01  4.873D-02
    3.285000    2.1869986811948D-01  4.873D-02
    3.290000    2.1825667069474D-01  4.873D-02
    3.295000    2.1780567486150D-01  4.872D-02
    3.300000    2.1734697937411D-01  4.871D-02
    3.305000    2.1688068436070D-01  4.870D-02
    3.310000    2.1640689123850D-01  4.868D-02
    3.315000    2.1592570263079D-01  4.866D-02
    3.320000    2.1543722228580D-01  4.863D-02
    3.325000    2.1494155499726D-01  4.861D-02
    3.330000    2.1443880652683D-01  4.857D-02
    3.335000    2.1392908352827D-01  4.854D-02
    3.340000    2.1341249347339D-01  4.850D-02
    3.345000    2.1288914457975D-01  4.845D-02
    3.350000    2.1235914574014D-01  4.840D-02
    3.355000    2.1182260645379D-01  4.835D-02
    3.360000    2.1127963675928D-01  4.830D-02
    3.365000    2.1073034716923D-01  4.824D-02
    3.370000    2.1017484860665D-01  4.818D-02
    3.375000    2.0961325234301D-01  4.812D-02
    3.380000    2.0904566993794D-01  4.805D-02
    3.385000    2.0847221318065D-01  4.798D-02
    3.390000    2.0789299403296D-01  4.791D-02
    3.395000    2.0730812457396D-01  4.784D-02
    3.400000    2.0671771694627D-01  4.776D-02
    3.405000    2.0612188330391D-01  4.768D-02
    3.410000    2.0552073576170D-01  4.759D-02
    3.415000    2.0491438634630D-01  4.751D-02
    3.420000    2.0430294694863D-01  4.742D-02
    3.425000    2.0368652927796D-01  4.733D-02
    3.430000    2.0306524481737D-01  4.723D-02
    3.435000    2.0243920478074D-01  4.714D-02
    3.440000    2.0180852007116D-01  4.704D-02
    3.445000    2.0117330124076D-01  4.694D-02
    3.450000    2.0053365845196D-01  4.684D-02
    3.455000    1.9988970144006D-01  4.673D-02
    3.460000    1.9924153947722D-01  4.662D-02
    3.465000    1.9858928133778D-01  4.651D-02
    3.470000    1.9793303526483D-01  4.640D-02
    3.475000    1.9727290893810D-01  4.629D-02
    3.480000    1.9660900944316D-01  4.617D-02
    3.485000    1.9594144324176D-01  4.606D-02
    3.490000    1.9527031614343D-01  4.594D-02
    3.495000    1.9459573327833D-01  4.581D-02
    3.500000    1.9391779907115D-01  4.569D-02
    3.505000    1.9323661721622D-01  4.557D-02
    3.510000    1.9255229065378D-01  4.544D-02
    3.515000    1.9186492154724D-01  4.531D-02
    3.520000    1.9117461126162D-01  4.518D-02
    3.525000    1.9048146034293D-01  4.505D-02
    3.530000    1.8978556849872D-01  4.492D-02
    3.535000    1.8908703457946D-01  4.478D-02
    3.540000    1.8838595656105D-01  4.465D-02
    3.545000    1.8768243152821D-01  4.451D-02
    3.550000    1.8697655565882D-01  4.437D-02
    3.555000    1.8626842420917D-01  4.423D-02
    3.560000    1.8555813150008D-01  4.409D-02
    3.565000    1.8484577090398D-01  4.395D-02
    3.570000    1.8413143483267D-01  4.381D-02
    3.575000    1.8341521472608D-01  4.366D-02
    3.580000    1.8269720104172D-01  4.352D-02
    3.585000    1.8197748324494D-01  4.337D-02
    3.590000    1.8125614979997D-01  4.322D-02
    3.595000    1.8053328816167D-01  4.307D-02
    3.600000    1.7980898476802D-01  4.292D-02
    3.605000    1.7908332503333D-01  4.277D-02
    3.610000    1.7835639334206D-01  4.262D-02
    3.615000    1.7762827304336D-01  4.247D-02
    3.620000    1.7689904644625D-01  4.231D-02
    3.625000    1.7616879481540D-01  4.216D-02
    3.630000    1.7543759836751D-01  4.201D-02
    3.635000    1.7470553626829D-01  4.185D-02
    3.640000    1.7397268663000D-01  4.169D-02
    3.645000    1.7323912650955D-01  4.154D-02
    3.650000    1.7250493190708D-01  4.138D-02
    3.655000    1.7177017776517D-01  4.122D-02
    3.660000    1.7103493796838D-01  4.106D-02
    3.665000    1.7029928534343D-01  4.090D-02
    3.670000    1.6956329165975D-01  4.074D-02
    3.675000    1.6882702763051D-01  4.058D-02
    3.680000    1.6809056291406D-01  4.042D-02
    3.685000    1.6735396611582D-01  4.026D-02
    3.690000    1.6661730479056D-01  4.009D-02
    3.695000    1.6588064544503D-01  3.993D-02
    3.700000    1.6514405354104D-01  3.977D-02
    3.705000    1.6440759349881D-01  3.961D-02
    3.710000    1.6367132870074D-01  3.944D-02
    3.715000    1.6293532149545D-01  3.928D-02
    3.720000    1.6219963320220D-01  3.911D-02
    3.725000    1.6146432411555D-01  3.895D-02
    3.730000    1.6072945351037D-01  3.878D-02
    3.735000    1.5999507964706D-01  3.862D-02
    3.740000    1.5926125977714D-01  3.845D-02
    3.745000    1.5852805014899D-01  3.829D-02
    3.750000    1.5779550601389D-01  3.812D-02
    3.755000    1.5706368163231D-01  3.796D-02
    3.760000    1.5633263028035D-01  3.779D-02
    3.765000    1.5560240425647D-01  3.763D-02
    3.770000    1.5487305488838D-01  3.746D-02
    3.775000    1.5414463254011D-01  3.729D-02
    3.780000    1.5341718661932D-01  3.713D-02
    3.785000    1.5269076558468D-01  3.696D-02
    3.790000    1.5196541695354D-01  3.680D-02
    3.795000    1.5124118730960D-01  3.663D-02
    3.800000    1.5051812231090D-01  3.646D-02
    3.805000    1.4979626669777D-01  3.630D-02
    3.810000    1.4907566430106D-01  3.613D-02
    3.815000    1.4835635805033D-01  3.597D-02
    3.820000    1.4763838998235D-01  3.580D-02
    3.825000    1.4692180124947D-01  3.564D-02
    3.830000    1.4620663212831D-01  3.547D-02
    3.835000    1.4549292202835D-01  3.530D-02
    3.840000    1.4478070950073D-01  3.514D-02
    3.845000    1.4407003224708D-01  3.497D-02
    3.850000    1.4336092712839D-01  3.481D-02
    3.855000    1.4265343017398D-01  3.464D-02
    3.860000    1.4194757659050D-01  3.448D-02
    3.865000    1.4124340077102D-01  3.432D-02
    3.870000    1.4054093630410D-01  3.415D-02
    3.875000    1.3984021598293D-01  3.399D-02
    3.880000    1.3914127181453D-01  3.382D-02
    3.885000    1.3844413502891D-01  3.366D-02
    3.890000    1.3774883608833D-01  3.350D-02
    3.895000    1.3705540469651D-01  3.333D-02
    3.900000    1.3636386980788D-01  3.317D-02
    3.905000    1.3567425963683D-01  3.301D-02
    3.910000    1.3498660166701D-01  3.285D-02
    3.915000    1.3430092266051D-01  3.269D-02
    3.920000    1.3361724866718D-01  3.253D-02
    3.925000    1.3293560503385D-01  3.236D-02
    3.930000    1.3225601641353D-01  3.220D-02
    3.935000    1.3157850677467D-01  3.204D-02
    3.940000    1.3090309941031D-01  3.188D-02
    3.945000    1.3022981694728D-01  3.173D-02
    3.950000    1.2955868135529D-01  3.157D-02
    3.955000    1.2888971395612D-01  3.141D-02
    3.960000    1.2822293543261D-01  3.125D-02
    3.965000    1.2755836583776D-01  3.109D-02
    3.970000    1.2689602460370D-01  3.093D-02
    3.975000    1.2623593055068D-01  3.078D-02
    3.980000    1.2557810189596D-01  3.062D-02
    3.985000    1.2492255626270D-01  3.047D-02
    3.990000    1.2426931068876D-01  3.031D-02
    3.995000    1.2361838163550D-01  3.016D-02
    4.000000    1.2296978499648D-01  3.000D-02
    4.005000    1.2232353610613D-01  2.985D-02
    4.010000    1.2167964974837D-01  2.969D-02
    4.015000    1.2103814016514D-01  2.954D-02
    4.020000    1.2039902106488D-01  2.939D-02
    4.025000    1.1976230563103D-01  2.923D-02
    4.030000    1.1912800653030D-01  2.908D-02
    4.035000    1.1849613592103D-01  2.893D-02
    4.040000    1.1786670546142D-01  2.878D-02
    4.045000    1.1723972631769D-01  2.863D-02
    4.050000    1.1661520917217D-01  2.848D-02
    4.055000    1.1599316423136D-01  2.833D-02
    4.060000    1.1537360123388D-01  2.818D-02
    4.065000    1.1475652945835D-01  2.804D-02
    4.070000    1.1414195773121D-01  2.789D-02
    4.075000    1.1352989443449D-01  2.774D-02
    4.080000    1.1292034751346D-01  2.760D-02
    4.085000    1.1231332448422D-01  2.745D-02
    4.090000    1.1170883244126D-01  2.730D-02
    4.095000    1.1110687806487D-01  2.716D-02
    4.100000    1.1050746762853D-01  2.702D-02
    4.105000    1.0991060700622D-01  2.687D-02
    4.110000    1.0931630167959D-01  2.673D-02
    4.115000    1.0872455674517D-01  2.659D-02
    4.120000    1.0813537692138D-01  2.644D-02
    4.125000    1.0754876655555D-01  2.630D-02
    4.130000    1.0696472963078D-01  2.616D-02
    4.135000    1.0638326977285D-01  2.602D-02
    4.140000    1.0580439025692D-01  2.588D-02
    4.145000    1.0522809401418D-01  2.574D-02
    4.150000    1.0465438363853D-01  2.560D-02
    4.155000    1.0408326139300D-01  2.547D-02
    4.160000    1.0351472921627D-01  2.533D-02
    4.165000    1.0294878872899D-01  2.519D-02
    4.170000    1.0238544124006D-01  2.506D-02
    4.175000    1.0182468775286D-01  2.492D-02
    4.180000    1.0126652897136D-01  2.479D-02
    4.185000    1.0071096530617D-01  2.465D-02
    4.190000    1.0015799688052D-01  2.452D-02
    4.195000    9.9607623536161D-02  2.438D-02
    4.200000    9.9059844839151D-02  2.425D-02
    4.205000    9.8514660085633D-02  2.412D-02
    4.210000    9.7972068307485D-02  2.399D-02
    4.215000    9.7432068277905D-02  2.386D-02
    4.220000    9.6894658516934D-02  2.373D-02
    4.225000    9.6359837296886D-02  2.360D-02
    4.230000    9.5827602647717D-02  2.347D-02
    4.235000    9.5297952362313D-02  2.334D-02
    4.240000    9.4770884001700D-02  2.321D-02
    4.245000    9.4246394900193D-02  2.309D-02
    4.250000    9.3724482170461D-02  2.296D-02
    4.255000    9.3205142708520D-02  2.283D-02
    4.260000    9.2688373198661D-02  2.271D-02
    4.265000    9.2174170118302D-02  2.258D-02
    4.270000    9.1662529742765D-02  2.246D-02
    4.275000    9.1153448149991D-02  2.233D-02
    4.280000    9.0646921225178D-02  2.221D-02
    4.285000    9.0142944665356D-02  2.209D-02
    4.290000    8.9641513983882D-02  2.197D-02
    4.295000    8.9142624514884D-02  2.185D-02
    4.300000    8.8646271417618D-02  2.172D-02
    4.305000    8.8152449680775D-02  2.160D-02
    4.310000    8.7661154126707D-02  2.149D-02
    4.315000    8.7172379415602D-02  2.137D-02
    4.320000    8.6686120049578D-02  2.125D-02
    4.325000    8.6202370376725D-02  2.113D-02
    4.330000    8.5721124595076D-02  2.101D-02
    4.335000    8.5242376756518D-02  2.090D-02
    4.340000    8.4766120770638D-02  2.078D-02
    4.345000    8.4292350408510D-02  2.067D-02
    4.350000    8.3821059306413D-02  2.055D-02
    4.355000    8.3352240969500D-02  2.044D-02
    4.360000    8.2885888775397D-02  2.032D-02
    4.365000    8.2421995977745D-02  2.021D-02
    4.370000    8.1960555709686D-02  2.010D-02
    4.375000    8.1501560987288D-02  1.999D-02
    4.380000    8.1045004712912D-02  1.987D-02
    4.385000    8.0590879678526D-02  1.976D-02
    4.390000    8.0139178568954D-02  1.965D-02
    4.395000    7.9689893965082D-02  1.954D-02
    4.400000    7.9243018346998D-02  1.943D-02
    4.405000    7.8798544097082D-02  1.933D-02
    4.410000    7.8356463503046D-02  1.922D-02
    4.415000    7.7916768760910D-02  1.911D-02
    4.420000    7.7479451977941D-02  1.900D-02
    4.425000    7.7044505175523D-02  1.890D-02
    4.430000    7.6611920291995D-02  1.879D-02
    4.435000    7.6181689185418D-02  1.869D-02
    4.440000    7.5753803636311D-02  1.858D-02
    4.445000    7.5328255350324D-02  1.848D-02
    4.450000    7.4905035960871D-02  1.838D-02
    4.455000    7.4484137031709D-02  1.827D-02
    4.460000    7.4065550059476D-02  1.817D-02
    4.465000    7.3649266476177D-02  1.807D-02
    4.470000    7.3235277651622D-02  1.797D-02
    4.475000    7.2823574895833D-02  1.787D-02
    4.480000    7.2414149461382D-02  1.777D-02
    4.485000    7.2006992545711D-02  1.767D-02
    4.490000    7.1602095293386D-02  1.757D-02
    4.495000    7.1199448798323D-02  1.747D-02
    4.500000    7.0799044105967D-02  1.737D-02
    4.505000    7.0400872215424D-02  1.728D-02
    4.510000    7.0004924081561D-02  1.718D-02
    4.515000    6.9611190617057D-02  1.708D-02
    4.520000    6.9219662694419D-02  1.699D-02
    4.525000    6.8830331147961D-02  1.689D-02